ITEM: TIMESTEP
0
ITEM: NUMBER OF ATOMS
3360
ITEM: BOX BOUNDS xy xz yz pp pp pp
-1.21408 10.1994 0
0 23.5914 -1.21408
0 388.745 4.94199
ITEM: ATOMS id type element xu yu zu q c_pe c_s[1] c_s[2] c_s[3] c_s[4] c_s[5] c_s[6] 
1 1 Mg 9.80626 4.86555 2.36624 1.2 -7.68272 -930597 2.22015e+06 3.35067e+06 1.28161e+06 554216 974251 
2 2 Si 6.81035 1.22305 1.61445 2.4 -32.4064 7.63865e+06 7.85016e+06 6.83594e+06 -415431 -371478 3.01027e+06 
3 3 O 7.96488 0.476217 2.42838 -1.2 -9.45897 -3.07714e+06 -814149 -2.93539e+06 -301431 -221519 -679315 
4 3 O 7.11982 2.03504 0.36217 -1.2 -9.03466 -2.04836e+06 -2.11891e+06 -2.24017e+06 734389 284623 -1.2322e+06 
5 3 O 9.00528 4.99082 0.40466 -1.2 -7.71795 1.20329e+06 -701340 1.11421e+06 765912 -112254 -1.54748e+06 
6 3 O 5.66361 0.0738703 1.56861 -1.2 -9.46178 -2.7694e+06 -2.35702e+06 -1.14613e+06 983069 628024 -2.42423e+06 
7 1 Mg 9.81664 3.47567 6.78065 1.2 -7.72886 -519388 2.50982e+06 4.14679e+06 329732 -1.34088e+06 11291.5 
8 2 Si 11.7972 4.19617 4.1711 2.4 -33.5302 5.89258e+06 8.26581e+06 1.14782e+07 1.50948e+06 -1.72961e+06 518979 
9 3 O 11.8104 3.71489 5.73933 -1.2 -9.67146 -1.34051e+06 -3.11154e+06 -1.95717e+06 438444 -598201 531934 
10 3 O 10.8667 3.25537 3.22564 -1.2 -9.01583 140846 -2.58848e+06 -3.26761e+06 -252631 1.92861e+06 -1.6697e+06 
11 3 O 11.0302 5.54431 4.12244 -1.2 -8.49002 -1.39007e+06 -4.78983e+06 -5.77965e+06 -689287 488714 1.4842e+06 
12 3 O 13.3014 4.19288 3.59202 -1.2 -9.30522 604431 -4.44593e+06 -2.91351e+06 -859810 -2.00436e+06 215622 
13 1 Mg 7.45579 3.90977 0.04217 1.2 -7.09382 2.35375e+06 1.16978e+06 -1.55368e+06 -670757 -51285.8 418722 
14 2 Si 3.47103 1.22532 4.09274 2.4 -31.849 6.73757e+06 7.38647e+06 9.03263e+06 20411.6 2.05799e+06 653669 
15 3 O 3.46274 1.61823 2.57059 -1.2 -9.79331 -4.38411e+06 -2.95895e+06 -198563 1.7666e+06 -949279 -701998 
16 3 O 4.27069 -0.174012 4.28152 -1.2 -10.0174 -1.43536e+06 -1.91658e+06 -3.55759e+06 736392 -1.10012e+06 -521052 
17 3 O 4.1828 2.20709 5.15117 -1.2 -9.71112 -3.10617e+06 -2.16899e+06 -2.46904e+06 381094 -597546 358633 
18 3 O 2.04964 0.973065 4.80783 -1.2 -9.94053 -2.4732e+06 -2.6611e+06 -4.1009e+06 -194463 -1.6803e+06 -1.36446e+06 
19 1 Mg 7.51918 2.80906 4.24116 1.2 -6.99943 1.90251e+06 -195227 1.91106e+06 1.08794e+06 -600859 -367425 
20 1 Mg 10.5229 1.3667 3.73917 1.2 -7.65567 -1.7038e+06 945059 4.17123e+06 -230348 -2018.3 -48487.6 
21 2 Si 8.51536 0.590791 5.76714 2.4 -32.3615 6.47522e+06 7.10845e+06 1.06647e+07 33133 -495329 1.01199e+06 
22 3 O 8.46052 0.246255 7.31612 -1.2 -10.0452 -1.81384e+06 -2.43126e+06 -2.31552e+06 298763 -771383 -752987 
23 3 O 9.19899 -0.513536 4.84198 -1.2 -9.67356 -1.91652e+06 -1.58564e+06 -3.95626e+06 -251269 -534245 1.52825e+06 
24 3 O 9.16311 2.01723 5.3373 -1.2 -9.88532 -1.63477e+06 -667092 -2.38315e+06 -1.20597e+06 537361 -268875 
25 3 O 6.9959 0.816114 5.25352 -1.2 -9.82212 -2.83258e+06 -2.73432e+06 -5.15825e+06 -61793.1 866446 -561808 
26 1 Mg 7.4382 5.58923 5.08565 1.2 -7.05517 3.16727e+06 -14232.4 -420866 -1.24833e+06 -1.11055e+06 -508901 
27 1 Mg 4.68991 4.23952 4.91311 1.2 -7.45197 -373286 1.54188e+06 1.19148e+06 68024 802682 -1.60872e+06 
28 2 Si 6.6833 5.46594 2.45978 2.4 -31.6138 7.45153e+06 6.29902e+06 8.43586e+06 -2.68655e+06 -143639 -1.45976e+06 
29 3 O 5.97054 4.67516 1.32313 -1.2 -9.70877 -240178 -2.65945e+06 -1.73665e+06 2.28889e+06 -1.1209e+06 709716 
30 3 O 6.20126 2.25234 2.79655 -1.2 -9.56545 -1.93401e+06 -1.72516e+06 -3.07773e+06 -945886 387966 677792 
31 3 O 5.6942 5.68792 3.70368 -1.2 -9.76768 -3.60769e+06 -187162 -3.08696e+06 515610 594391 31998.1 
32 3 O 7.8934 4.62815 3.19039 -1.2 -10.0535 -2.94693e+06 -789207 -1.94448e+06 -282636 721367 -1.19292e+06 
33 1 Mg 9.77618 2.23163 11.5599 1.2 -7.82109 -764393 1.97803e+06 3.59412e+06 208711 -783273 122137 
34 2 Si 11.6043 2.91262 8.95667 2.4 -32.1935 7.78108e+06 6.48929e+06 9.21377e+06 106100 94371.5 421121 
35 3 O 11.6786 2.50974 10.4687 -1.2 -10.1454 -2.06417e+06 -2.46385e+06 -2.59792e+06 -125684 431674 -300109 
36 3 O 10.9647 1.87159 7.92023 -1.2 -9.67701 -1.95204e+06 -1.98164e+06 -2.97378e+06 -668955 178137 572427 
37 3 O 10.9507 4.32991 8.61907 -1.2 -9.6507 -2.38825e+06 -1.19989e+06 -3.88327e+06 351988 274543 -160813 
38 3 O 13.1048 3.09946 8.3065 -1.2 -9.68469 -2.67173e+06 -2.20316e+06 -3.49975e+06 152909 -1.22718e+06 -76931.1 
39 1 Mg 5.22854 0.583956 6.35195 1.2 -7.52605 -515814 1.95165e+06 2.16209e+06 -23331.6 -211231 -204174 
40 2 Si 3.3856 -0.146839 8.82237 2.4 -32.0539 7.64624e+06 6.71988e+06 8.86283e+06 -108107 190376 881426 
41 3 O 3.33909 0.257888 7.29844 -1.2 -10.3402 -2.04329e+06 -2.53393e+06 -1.97183e+06 251517 -56817.7 -526480 
42 3 O 4.03911 -1.56197 9.16677 -1.2 -9.67525 -2.30137e+06 -1.25806e+06 -4.18086e+06 528013 320506 -780808 
43 3 O 4.04751 0.903916 9.82906 -1.2 -9.67581 -2.29679e+06 -2.02658e+06 -3.21094e+06 -504101 18738.5 701537 
44 3 O 1.89881 -0.316966 9.47971 -1.2 -9.73447 -2.99092e+06 -2.28385e+06 -3.19018e+06 267347 -1.00793e+06 -456535 
45 1 Mg 7.54562 1.39346 8.88618 1.2 -7.27581 2.60235e+06 -1.3819e+06 1.98546e+06 1.67946e+06 -896732 1.46437e+06 
46 1 Mg 10.321 -0.0457811 8.40924 1.2 -7.80361 -915345 2.09297e+06 3.58649e+06 -158966 740273 146685 
47 2 Si 8.48929 -0.600948 10.5159 2.4 -32.169 7.83758e+06 6.52781e+06 9.07794e+06 -14189.7 48482.2 732209 
48 3 O 8.39952 -1.00201 12.0262 -1.2 -10.1449 -2.12618e+06 -2.38966e+06 -2.66041e+06 93376.4 -362562 -583795 
49 3 O 9.15304 0.815295 10.174 -1.2 -9.68322 -2.26794e+06 -1.16992e+06 -3.99753e+06 -420563 -327438 -599329 
50 3 O 9.14544 -1.65264 9.50631 -1.2 -9.66236 -2.13054e+06 -1.904e+06 -3.35231e+06 521440 -30596.8 486242 
51 3 O 7.0051 -0.41159 9.82976 -1.2 -9.71945 -2.8527e+06 -2.29989e+06 -3.03238e+06 -169498 962698 -494103 
52 1 Mg 7.51877 4.29204 9.695 1.2 -7.31205 2.7006e+06 24034.9 506315 -1.34621e+06 -1.47574e+06 -1.07747e+06 
53 1 Mg 4.68473 2.82989 9.38619 1.2 -7.81576 -497578 2.04351e+06 3.28619e+06 -243935 759398 -13284.1 
54 2 Si 6.54116 3.38458 7.3036 2.4 -31.9553 7.96638e+06 6.64755e+06 8.19229e+06 -149823 -353973 605396 
55 3 O 6.58745 3.8104 5.78274 -1.2 -10.4524 -2.25656e+06 -2.66095e+06 -2.16263e+06 -81203 -455144 -492365 
56 3 O 5.85846 1.98372 7.65629 -1.2 -9.75038 -2.45695e+06 -1.53386e+06 -4.47036e+06 -359576 -168199 -862313 
57 3 O 5.88319 4.43919 8.30251 -1.2 -9.67372 -2.17029e+06 -2.21627e+06 -3.21052e+06 360172 -32110 856416 
58 3 O 8.03204 3.17951 7.919 -1.2 -9.74066 -2.83083e+06 -2.54181e+06 -2.67374e+06 -598876 643588 88652.8 
59 1 Mg 9.76935 0.974277 16.2394 1.2 -7.83564 -669236 1.85029e+06 3.63183e+06 199245 -740611 145500 
60 2 Si 11.6036 1.66591 13.649 2.4 -32.2181 7.89639e+06 6.39673e+06 9.07357e+06 20656.6 -143040 528127 
61 3 O 11.684 1.26176 15.159 -1.2 -10.1331 -2.14493e+06 -2.37277e+06 -2.83496e+06 -90546 357629 -464026 
62 3 O 10.9425 0.61668 12.6394 -1.2 -9.64819 -2.28678e+06 -1.92694e+06 -3.41874e+06 -528530 31379 626782 
63 3 O 10.9448 3.08268 13.3105 -1.2 -9.64185 -2.31076e+06 -1.17252e+06 -4.15481e+06 434164 276443 -469814 
64 3 O 13.0892 1.84766 12.9729 -1.2 -9.67817 -2.97365e+06 -2.2212e+06 -3.31282e+06 256820 -913794 -260546 
65 1 Mg 5.21943 -0.693718 10.9138 1.2 -7.81104 -620330 1.89191e+06 3.52435e+06 224240 -797637 193751 
66 2 Si 3.38013 -1.39721 13.505 2.4 -32.2333 7.8799e+06 6.42944e+06 9.1522e+06 33981.5 -145762 610991 
67 3 O 3.29696 -0.990524 11.9935 -1.2 -10.1397 -2.12515e+06 -2.40777e+06 -2.69522e+06 -85933.5 398775 -607140 
68 3 O 4.03876 -2.81271 13.849 -1.2 -9.63555 -2.28054e+06 -1.14826e+06 -4.181e+06 449701 298024 -663983 
69 3 O 4.04174 -0.344798 14.5107 -1.2 -9.63835 -2.25184e+06 -1.8625e+06 -3.42759e+06 -515143 19286.9 599648 
70 3 O 1.89355 -1.57737 14.1787 -1.2 -9.67308 -2.9948e+06 -2.15623e+06 -3.38384e+06 269624 -917218 -327674 
71 1 Mg 7.49314 0.135178 13.5763 1.2 -7.32449 2.64824e+06 -1.35127e+06 1.93365e+06 1.74017e+06 -505824 1.30153e+06 
72 1 Mg 10.3094 -1.2926 13.1177 1.2 -7.82569 -688190 1.83174e+06 3.6126e+06 -199214 753405 188164 
73 2 Si 8.47816 -1.85438 15.2061 2.4 -32.2231 7.88737e+06 6.3617e+06 9.14814e+06 -29092.6 140079 598589 
74 3 O 8.39597 -2.26024 16.716 -1.2 -10.1299 -2.15939e+06 -2.32033e+06 -2.83975e+06 102600 -384913 -538337 
75 3 O 9.13859 -2.90556 14.1978 -1.2 -9.64585 -2.27839e+06 -1.82756e+06 -3.45298e+06 543918 -45531 549512 
76 3 O 9.1396 -0.439115 14.863 -1.2 -9.64571 -2.276e+06 -1.14953e+06 -4.12997e+06 -435162 -298827 -592630 
77 3 O 6.99284 -1.67211 14.5316 -1.2 -9.67564 -3.00245e+06 -2.17707e+06 -3.38465e+06 -238486 895482 -352588 
78 1 Mg 7.49446 3.03257 14.3657 1.2 -7.33622 2.65523e+06 -21165.5 587892 -1.25959e+06 -1.29225e+06 -1.05679e+06 
79 1 Mg 4.67306 1.57 14.0388 1.2 -7.83529 -663420 1.88838e+06 3.62574e+06 -192515 725133 127934 
80 2 Si 6.51659 2.12947 11.9532 2.4 -32.2155 7.82651e+06 6.48946e+06 9.02297e+06 -40227.9 49615.8 474809 
81 3 O 6.60916 2.537 10.4435 -1.2 -10.1326 -2.01659e+06 -2.46428e+06 -2.73494e+06 106465 -543123 -457086 
82 3 O 5.85178 0.713169 12.2833 -1.2 -9.65016 -2.23932e+06 -1.21811e+06 -4.07706e+06 -438809 -289583 -588572 
83 3 O 5.85014 3.17571 12.962 -1.2 -9.64302 -2.2628e+06 -1.90687e+06 -3.44301e+06 523286 -81365.1 734089 
84 3 O 7.99967 1.94409 12.6279 -1.2 -9.68089 -3.02208e+06 -2.21199e+06 -3.35221e+06 -272427 844630 -240493 
85 1 Mg 9.76735 -0.2832 20.9164 1.2 -7.8398 -668434 1.81763e+06 3.65358e+06 198768 -738841 149602 
86 2 Si 11.6 0.412345 18.3271 2.4 -32.2394 7.8856e+06 6.32594e+06 9.18886e+06 26979.4 -140839 534957 
87 3 O 11.6804 0.00641898 19.8374 -1.2 -10.1253 -2.15643e+06 -2.32087e+06 -2.88192e+06 -95533.2 372324 -501630 
88 3 O 10.9391 -0.639202 17.3202 -1.2 -9.63682 -2.26738e+06 -1.83601e+06 -3.49383e+06 -536527 37508.9 616346 
89 3 O 10.9404 1.82841 17.9869 -1.2 -9.63467 -2.27475e+06 -1.12122e+06 -4.21278e+06 447873 291083 -554087 
90 3 O 13.0867 0.593045 17.6552 -1.2 -9.66994 -3.00731e+06 -2.14002e+06 -3.43289e+06 252615 -919278 -284339 
91 1 Mg 5.20974 -1.95828 15.596 1.2 -7.83832 -678516 1.82878e+06 3.65302e+06 206018 -742103 169016 
92 2 Si 3.37765 -2.65601 18.1882 2.4 -32.243 7.89541e+06 6.32467e+06 9.2198e+06 38991.2 -148402 556168 
93 3 O 3.29638 -2.24912 16.6776 -1.2 -10.1284 -2.1579e+06 -2.32434e+06 -2.83818e+06 -93754.3 374284 -552829 
94 3 O 4.0374 -4.07144 18.5308 -1.2 -9.6333 -2.27826e+06 -1.11193e+06 -4.22467e+06 448640 298616 -611839 
95 3 O 4.03763 -1.60341 19.1947 -1.2 -9.63378 -2.27462e+06 -1.82145e+06 -3.51242e+06 -531147 32758.4 616179 
96 3 O 1.89078 -2.83679 18.8604 -1.2 -9.66753 -3.00277e+06 -2.11413e+06 -3.43684e+06 249877 -918287 -310995 
97 1 Mg 7.4875 -1.12174 18.2573 1.2 -7.33315 2.65738e+06 -1.37274e+06 1.95326e+06 1.73647e+06 -479927 1.25198e+06 
98 1 Mg 10.3075 -2.55028 17.7982 1.2 -7.8383 -668170 1.80847e+06 3.64554e+06 -196752 738904 162125 
99 2 Si 8.47583 -3.11286 19.8856 2.4 -32.2394 7.89038e+06 6.30641e+06 9.20672e+06 -33269.1 139157 546821 
100 3 O 8.39463 -3.51922 21.3958 -1.2 -10.1247 -2.15966e+06 -2.30204e+06 -2.8869e+06 100873 -376332 -526274 
101 3 O 9.13612 -4.16575 18.8798 -1.2 -9.63607 -2.27644e+06 -1.80085e+06 -3.52045e+06 537410 -34095.7 599401 
102 3 O 9.13659 -1.69752 19.5435 -1.2 -9.63737 -2.27445e+06 -1.11027e+06 -4.20825e+06 -445459 -301010 -592570 
103 3 O 6.98964 -2.93152 19.2131 -1.2 -9.66949 -3.01115e+06 -2.1256e+06 -3.44058e+06 -244183 906983 -313549 
104 1 Mg 7.48813 1.77543 19.0393 1.2 -7.33638 2.65711e+06 -54034.3 638806 -1.26085e+06 -1.28051e+06 -1.03131e+06 
105 1 Mg 4.66878 0.309133 18.7192 1.2 -7.83997 -676341 1.829e+06 3.64966e+06 -196075 728864 148842 
106 2 Si 6.50052 0.869854 16.6299 2.4 -32.2399 7.88484e+06 6.35602e+06 9.17719e+06 -37647.9 139545 521415 
107 3 O 6.58352 1.27518 15.1192 -1.2 -10.1266 -2.14263e+06 -2.36365e+06 -2.81347e+06 101663 -382100 -472354 
108 3 O 5.83993 -0.545815 16.9699 -1.2 -9.63582 -2.26293e+06 -1.13676e+06 -4.19344e+06 -451211 -290483 -587774 
109 3 O 5.8401 1.92157 17.637 -1.2 -9.63596 -2.27617e+06 -1.82741e+06 -3.50119e+06 534015 -43812.9 649459 
110 3 O 7.98702 0.688367 17.3023 -1.2 -9.66937 -2.99994e+06 -2.13044e+06 -3.4145e+06 -253317 902561 -284190 
111 1 Mg 9.76645 -1.54125 25.5929 1.2 -7.84062 -669514 1.80943e+06 3.66138e+06 197944 -737938 149819 
112 2 Si 11.5985 -0.844937 23.0041 2.4 -32.2422 7.89074e+06 6.29863e+06 9.21282e+06 33091.6 -140238 529586 
113 3 O 11.6791 -1.25128 24.5143 -1.2 -10.1243 -2.15832e+06 -2.30403e+06 -2.90147e+06 -98620.9 372775 -510679 
114 3 O 10.9382 -1.89773 21.9982 -1.2 -9.6353 -2.27346e+06 -1.80369e+06 -3.52687e+06 -537324 34834.4 619414 
115 3 O 10.9384 0.57075 22.6631 -1.2 -9.63442 -2.27597e+06 -1.10065e+06 -4.23236e+06 447991 296994 -575361 
116 3 O 13.0852 -0.664047 22.3324 -1.2 -9.668 -3.00778e+06 -2.11493e+06 -3.45458e+06 248397 -915028 -293237 
117 1 Mg 5.20778 -3.21827 20.2771 1.2 -7.84138 -674586 1.81145e+06 3.66358e+06 198715 -737510 157669 
118 2 Si 3.37616 -3.91544 22.867 2.4 -32.2435 7.89525e+06 6.29828e+06 9.22511e+06 37844.4 -142700 534219 
119 3 O 3.295 -3.50877 21.3568 -1.2 -10.1253 -2.16001e+06 -2.30549e+06 -2.89153e+06 -99552 375002 -527326 
120 3 O 4.03645 -5.33074 23.2093 -1.2 -9.63403 -2.27743e+06 -1.09759e+06 -4.24072e+06 447193 300028 -594794 
121 3 O 4.03599 -2.86213 23.8728 -1.2 -9.63356 -2.27475e+06 -1.79985e+06 -3.5335e+06 -534866 33590.7 622012 
122 3 O 1.88939 -4.09639 23.5389 -1.2 -9.66711 -3.00571e+06 -2.10417e+06 -3.45626e+06 245231 -915877 -299340 
123 1 Mg 7.4868 -2.38019 22.9354 1.2 -7.33585 2.65891e+06 -1.3826e+06 1.95928e+06 1.73628e+06 -479280 1.24139e+06 
124 1 Mg 10.3069 -3.80947 22.4755 1.2 -7.84023 -668231 1.80554e+06 3.66038e+06 -197279 737898 153084 
125 2 Si 8.47538 -4.37184 24.5631 2.4 -32.2418 7.89186e+06 6.29267e+06 9.22071e+06 -36183.8 138304 531043 
126 3 O 8.39425 -4.77834 26.0733 -1.2 -10.1243 -2.15882e+06 -2.29775e+06 -2.90394e+06 100634 -376037 -518505 
127 3 O 9.13545 -5.42513 23.5576 -1.2 -9.6347 -2.27637e+06 -1.79156e+06 -3.53535e+06 536744 -33858.4 615507 
128 3 O 9.13581 -2.95643 24.2213 -1.2 -9.63554 -2.27684e+06 -1.09675e+06 -4.23187e+06 -447714 -301696 -587734 
129 3 O 6.98886 -4.19077 23.8912 -1.2 -9.66795 -3.00887e+06 -2.10911e+06 -3.45771e+06 -244883 910546 -301213 
130 1 Mg 7.48696 0.517619 23.7156 1.2 -7.33653 2.65817e+06 -62500.1 637820 -1.26079e+06 -1.28649e+06 -1.03584e+06 
131 1 Mg 4.6672 -0.949874 23.3963 1.2 -7.84116 -672624 1.81448e+06 3.66021e+06 -197238 733146 150873 
132 2 Si 6.49884 -0.388353 21.3082 2.4 -32.2422 7.89381e+06 6.31003e+06 9.20935e+06 -36910.5 138855 527623 
133 3 O 6.58042 0.0178781 19.7979 -1.2 -10.1262 -2.15726e+06 -2.3196e+06 -2.87652e+06 100225 -377468 -507292 
134 3 O 5.8385 -1.80388 21.6494 -1.2 -9.63423 -2.27432e+06 -1.10621e+06 -4.22948e+06 -448252 -299374 -588701 
135 3 O 5.83872 0.664367 22.3144 -1.2 -9.63451 -2.27769e+06 -1.80604e+06 -3.52897e+06 536514 -38495.6 632234 
136 3 O 7.98547 -0.569431 21.9802 -1.2 -9.66739 -3.00532e+06 -2.11184e+06 -3.44796e+06 -248735 911333 -293365 
137 1 Mg 9.7657 -2.79955 30.2692 1.2 -7.83988 -671265 1.80683e+06 3.66458e+06 197682 -737711 149502 
138 2 Si 11.5977 -2.10315 27.6806 2.4 -32.2421 7.89089e+06 6.29049e+06 9.22061e+06 35299.5 -139184 525639 
139 3 O 11.6785 -2.50955 29.1908 -1.2 -10.1247 -2.15806e+06 -2.29834e+06 -2.90995e+06 -99944.1 372212 -512792 
140 3 O 10.9375 -0.6876 27.3392 -1.2 -9.63475 -2.27608e+06 -1.09355e+06 -4.23872e+06 447904 299079 -580839 
141 3 O 10.9377 -3.15642 26.6751 -1.2 -9.63468 -2.27579e+06 -1.79391e+06 -3.53809e+06 -537407 33390.2 622478 
142 3 O 13.0844 -1.92224 27.0089 -1.2 -9.66788 -3.00717e+06 -2.10631e+06 -3.46138e+06 246332 -914639 -294193 
143 1 Mg 5.20718 -4.47764 24.9549 1.2 -7.84126 -671714 1.80796e+06 3.66547e+06 197575 -737178 151704 
144 2 Si 3.37541 -5.1743 27.544 2.4 -32.2427 7.89205e+06 6.29e+06 9.22392e+06 37361.2 -140054 525703 
145 3 O 3.29438 -4.76777 26.0339 -1.2 -10.1244 -2.15953e+06 -2.29857e+06 -2.90946e+06 -100473 374011 -517763 
146 3 O 4.03568 -6.58971 27.8859 -1.2 -9.63486 -2.2758e+06 -1.09194e+06 -4.2442e+06 447411 300642 -585928 
147 3 O 4.03525 -4.12083 28.5495 -1.2 -9.63425 -2.27454e+06 -1.79186e+06 -3.5423e+06 -536634 32710.8 624211 
148 3 O 1.88865 -5.35522 28.2157 -1.2 -9.66763 -3.00623e+06 -2.10173e+06 -3.46495e+06 245195 -915640 -294461 
149 1 Mg 7.48634 -3.63876 27.6122 1.2 -7.33605 2.659e+06 -1.38538e+06 1.95996e+06 1.73632e+06 -479958 1.23799e+06 
150 1 Mg 10.3065 -5.06852 27.152 1.2 -7.84058 -670435 1.80675e+06 3.66305e+06 -197291 735410 150147 
151 2 Si 8.47478 -5.63047 29.2396 2.4 -32.2412 7.89044e+06 6.28737e+06 9.22254e+06 -36838.8 137808 524350 
152 3 O 8.39359 -6.03701 30.7497 -1.2 -10.1252 -2.15774e+06 -2.29558e+06 -2.91424e+06 100578 -375222 -515341 
153 3 O 9.13484 -6.68395 28.2343 -1.2 -9.63501 -2.27492e+06 -1.78938e+06 -3.54256e+06 537581 -34224.7 623088 
154 3 O 9.1351 -4.21505 28.8979 -1.2 -9.63556 -2.27602e+06 -1.09219e+06 -4.24124e+06 -448122 -302001 -584332 
155 3 O 6.98818 -5.44959 28.5678 -1.2 -9.66802 -3.008e+06 -2.10318e+06 -3.46361e+06 -244632 911723 -295401 
156 1 Mg 7.48633 -0.740596 28.3917 1.2 -7.33613 2.65776e+06 -65595.1 638572 -1.26062e+06 -1.28865e+06 -1.03891e+06 
157 1 Mg 4.66642 -2.20856 28.0726 1.2 -7.84072 -672318 1.81085e+06 3.66424e+06 -197458 734196 150818 
158 2 Si 6.49811 -1.64696 25.985 2.4 -32.2426 7.89322e+06 6.29387e+06 9.21982e+06 -36878 139548 527044 
159 3 O 6.57942 -1.24051 24.4749 -1.2 -10.1246 -2.1587e+06 -2.30461e+06 -2.9039e+06 100037 -376123 -512022 
160 3 O 5.83783 -3.06242 26.3265 -1.2 -9.63461 -2.27569e+06 -1.09601e+06 -4.24064e+06 -448502 -300547 -585622 
161 3 O 5.83803 -0.593757 26.9907 -1.2 -9.63465 -2.27523e+06 -1.79538e+06 -3.53844e+06 536807 -36008.8 627254 
162 3 O 7.98478 -1.82787 26.6569 -1.2 -9.66719 -3.00579e+06 -2.10445e+06 -3.45888e+06 -246395 912427 -293815 
163 1 Mg 9.76487 -4.05802 34.9451 1.2 -7.83887 -673547 1.80611e+06 3.66651e+06 197613 -737601 149721 
164 2 Si 11.597 -3.36155 32.3567 2.4 -32.2399 7.88728e+06 6.28589e+06 9.22652e+06 36832.3 -138937 524022 
165 3 O 11.6777 -3.76798 33.8669 -1.2 -10.1259 -2.15601e+06 -2.29506e+06 -2.91448e+06 -100273 371580 -512852 
166 3 O 10.937 -4.41499 31.3513 -1.2 -9.6354 -2.27292e+06 -1.789e+06 -3.54311e+06 -536902 33338.1 624536 
167 3 O 10.9367 -1.94607 32.0152 -1.2 -9.63594 -2.27381e+06 -1.09006e+06 -4.24359e+06 447323 299618 -581943 
168 3 O 13.0837 -3.18064 31.6851 -1.2 -9.66891 -3.00584e+06 -2.10194e+06 -3.46645e+06 245601 -915103 -293433 
169 1 Mg 5.20662 -5.73649 29.6315 1.2 -7.8405 -672491 1.80802e+06 3.66522e+06 197483 -736943 149943 
170 2 Si 3.37464 -6.43294 32.2201 2.4 -32.2405 7.88804e+06 6.28619e+06 9.22751e+06 37849.4 -139887 523577 
171 3 O 3.29386 -6.02644 30.71 -1.2 -10.1251 -2.1573e+06 -2.29629e+06 -2.91531e+06 -100834 372832 -513708 
172 3 O 4.03442 -5.37943 33.2256 -1.2 -9.63552 -2.27259e+06 -1.78777e+06 -3.54546e+06 -537368 33060.4 625804 
173 3 O 4.03495 -7.84839 32.5618 -1.2 -9.6358 -2.27382e+06 -1.08765e+06 -4.24646e+06 447580 300337 -582971 
174 3 O 1.88788 -6.6139 32.8917 -1.2 -9.66861 -3.00481e+06 -2.09936e+06 -3.46857e+06 245129 -916284 -293397 
175 1 Mg 7.48569 -4.8973 32.2883 1.2 -7.33514 2.65692e+06 -1.38703e+06 1.96069e+06 1.73651e+06 -479529 1.23633e+06 
176 1 Mg 10.3058 -6.32728 31.828 1.2 -7.83967 -673284 1.80778e+06 3.66501e+06 -197619 734432 149996 
177 2 Si 8.47411 -6.88922 33.9154 2.4 -32.2393 7.88665e+06 6.28315e+06 9.22666e+06 -37199.5 138578 522525 
178 3 O 8.39286 -7.29575 35.4256 -1.2 -10.1258 -2.1557e+06 -2.29428e+06 -2.91567e+06 100581 -375440 -514106 
179 3 O 9.13419 -7.94267 32.9102 -1.2 -9.63621 -2.27379e+06 -1.78784e+06 -3.54707e+06 538228 -34001.2 624380 
180 3 O 9.13432 -5.47372 33.574 -1.2 -9.63646 -2.27419e+06 -1.08845e+06 -4.24641e+06 -448531 -301967 -582535 
181 3 O 6.98745 -6.70837 33.2437 -1.2 -9.66902 -3.00507e+06 -2.0993e+06 -3.46699e+06 -245659 911620 -293976 
182 1 Mg 7.48558 -1.99892 33.0677 1.2 -7.33488 2.65586e+06 -67588 639023 -1.26063e+06 -1.28902e+06 -1.0407e+06 
183 1 Mg 4.66564 -3.46708 32.7488 1.2 -7.83961 -674173 1.80891e+06 3.66614e+06 -197331 733526 150240 
184 2 Si 6.49743 -2.90541 30.6613 2.4 -32.241 7.89011e+06 6.28726e+06 9.22553e+06 -36643.8 139480 524473 
185 3 O 6.57874 -2.49893 29.1512 -1.2 -10.1247 -2.15772e+06 -2.29938e+06 -2.91088e+06 99847.4 -375081 -512793 
186 3 O 5.8372 -4.3209 31.0028 -1.2 -9.6355 -2.27436e+06 -1.09094e+06 -4.24594e+06 -448272 -302045 -584142 
187 3 O 5.83729 -1.85208 31.6668 -1.2 -9.63559 -2.27317e+06 -1.79097e+06 -3.54324e+06 537355 -35655.7 626916 
188 3 O 7.9841 -3.08622 31.3332 -1.2 -9.66833 -3.00441e+06 -2.09999e+06 -3.46407e+06 -245686 912772 -293410 
189 1 Mg 9.76358 -5.31659 39.6209 1.2 -7.83793 -674977 1.80371e+06 3.66835e+06 197758 -739164 149357 
190 2 Si 11.5961 -4.62009 37.0325 2.4 -32.2387 7.88296e+06 6.2819e+06 9.22856e+06 37626.1 -140020 523703 
191 3 O 11.6766 -5.02654 38.5427 -1.2 -10.1264 -2.15431e+06 -2.29344e+06 -2.9176e+06 -100354 369805 -512485 
192 3 O 10.9363 -5.67361 36.0272 -1.2 -9.63611 -2.27194e+06 -1.78744e+06 -3.54845e+06 -537663 32311 623983 
193 3 O 10.9358 -3.20462 36.6911 -1.2 -9.63662 -2.27233e+06 -1.08834e+06 -4.2472e+06 447662 299183 -581184 
194 3 O 13.0828 -4.43912 36.361 -1.2 -9.66993 -3.00516e+06 -2.09935e+06 -3.46986e+06 245001 -915505 -293585 
195 1 Mg 5.20589 -6.99517 34.3074 1.2 -7.83943 -673256 1.80644e+06 3.66644e+06 197854 -737307 149916 
196 2 Si 3.37362 -7.69156 36.896 2.4 -32.2381 7.88412e+06 6.28144e+06 9.23116e+06 37639.9 -140129 523369 
197 3 O 3.29302 -7.28511 35.3858 -1.2 -10.1257 -2.15582e+06 -2.2935e+06 -2.916e+06 -100465 371678 -513133 
198 3 O 4.03338 -6.63803 37.9014 -1.2 -9.63682 -2.27163e+06 -1.78513e+06 -3.5481e+06 -537304 32588.8 625144 
199 3 O 4.03391 -9.10702 37.2376 -1.2 -9.63713 -2.27208e+06 -1.08645e+06 -4.24779e+06 447809 299754 -582124 
200 3 O 1.88686 -7.87251 37.5675 -1.2 -9.66986 -3.00402e+06 -2.09849e+06 -3.47113e+06 245925 -916822 -293184 
201 1 Mg 7.48491 -6.15586 36.9641 1.2 -7.33434 2.65562e+06 -1.38909e+06 1.9619e+06 1.73662e+06 -480133 1.23732e+06 
202 1 Mg 10.305 -7.58592 36.5037 1.2 -7.83902 -675359 1.80614e+06 3.66723e+06 -197017 732758 150123 
203 2 Si 8.47296 -8.14778 38.5912 2.4 -32.2378 7.88383e+06 6.27936e+06 9.22961e+06 -36150.1 137790 522474 
204 3 O 8.39152 -8.55431 40.1013 -1.2 -10.1271 -2.1542e+06 -2.29333e+06 -2.91971e+06 100478 -376496 -513391 
205 3 O 9.13322 -6.73227 38.2498 -1.2 -9.63707 -2.27316e+06 -1.08704e+06 -4.24884e+06 -448941 -302722 -583160 
206 3 O 9.13316 -9.20121 37.586 -1.2 -9.637 -2.27162e+06 -1.78731e+06 -3.54817e+06 538228 -34823.1 625525 
207 3 O 6.98637 -7.96693 37.9194 -1.2 -9.66968 -3.00378e+06 -2.09684e+06 -3.46837e+06 -245379 910734 -293227 
208 1 Mg 7.4846 -3.25743 37.7434 1.2 -7.33407 2.65455e+06 -68543.1 638695 -1.26064e+06 -1.28995e+06 -1.04197e+06 
209 1 Mg 4.66473 -4.72567 37.4246 1.2 -7.83853 -675507 1.80801e+06 3.66701e+06 -197731 732480 150831 
210 2 Si 6.49666 -4.16398 35.3372 2.4 -32.2383 7.88633e+06 6.28322e+06 9.22903e+06 -36732.6 138620 523599 
211 3 O 6.57797 -3.75742 33.8271 -1.2 -10.1258 -2.15536e+06 -2.29529e+06 -2.91532e+06 99985 -375212 -512770 
212 3 O 5.83644 -5.57948 35.6787 -1.2 -9.63667 -2.27288e+06 -1.08776e+06 -4.24816e+06 -448335 -302791 -583622 
213 3 O 5.83648 -3.1106 36.3426 -1.2 -9.6369 -2.27142e+06 -1.7881e+06 -3.54591e+06 537599 -35739.9 626392 
214 3 O 7.98329 -4.34479 36.0091 -1.2 -9.66946 -3.00338e+06 -2.09871e+06 -3.46716e+06 -245786 912164 -293733 
215 1 Mg 9.76194 -6.57512 44.2967 1.2 -7.83652 -676633 1.80119e+06 3.67064e+06 197915 -739609 149206 
216 2 Si 11.5946 -5.87866 41.7082 2.4 -32.2363 7.87817e+06 6.27663e+06 9.23301e+06 37370 -140111 522623 
217 3 O 11.6751 -6.28512 43.2184 -1.2 -10.1276 -2.15252e+06 -2.291e+06 -2.92005e+06 -100214 369769 -512534 
218 3 O 10.9349 -6.93221 40.7029 -1.2 -9.63738 -2.2705e+06 -1.78523e+06 -3.55153e+06 -537970 30854.5 624113 
219 3 O 10.9343 -4.4632 41.3668 -1.2 -9.63802 -2.27053e+06 -1.08649e+06 -4.24981e+06 448841 298730 -580972 
220 3 O 13.0814 -5.69767 41.0368 -1.2 -9.67083 -3.00262e+06 -2.09736e+06 -3.47287e+06 245179 -916772 -292565 
221 1 Mg 5.20473 -8.25376 38.9831 1.2 -7.83813 -674896 1.80373e+06 3.66835e+06 198097 -739385 149255 
222 2 Si 3.37215 -8.9501 41.5718 2.4 -32.2358 7.88003e+06 6.27928e+06 9.23408e+06 37354.1 -140795 523160 
223 3 O 3.29168 -8.54368 40.0616 -1.2 -10.127 -2.15411e+06 -2.29203e+06 -2.91755e+06 -100153 370242 -512792 
224 3 O 4.03245 -10.3656 41.9134 -1.2 -9.63815 -2.26967e+06 -1.08388e+06 -4.249e+06 447391 299182 -581730 
225 3 O 4.03185 -7.89655 42.5772 -1.2 -9.63795 -2.26911e+06 -1.78258e+06 -3.5503e+06 -536688 31934.1 624819 
226 3 O 1.88536 -9.13108 42.2433 -1.2 -9.67118 -3.00071e+06 -2.09709e+06 -3.47289e+06 245519 -917729 -293376 
227 1 Mg 7.48331 -7.41453 41.6399 1.2 -7.3329 2.6535e+06 -1.39148e+06 1.96453e+06 1.73677e+06 -480682 1.23753e+06 
228 1 Mg 10.3035 -8.84448 41.1795 1.2 -7.83766 -677508 1.80485e+06 3.66907e+06 -197095 732205 149817 
229 2 Si 8.47141 -9.40634 43.267 2.4 -32.2351 7.88024e+06 6.27565e+06 9.23388e+06 -36375.9 137270 523487 
230 3 O 8.38988 -9.81286 44.7771 -1.2 -10.1282 -2.15209e+06 -2.29091e+06 -2.92096e+06 100740 -377099 -513157 
231 3 O 9.13164 -7.99083 42.9256 -1.2 -9.63859 -2.27101e+06 -1.08446e+06 -4.2509e+06 -448739 -302718 -582581 
232 3 O 9.13164 -10.4598 42.2618 -1.2 -9.63832 -2.26996e+06 -1.7845e+06 -3.54978e+06 537794 -35141.4 625979 
233 3 O 6.98482 -9.22553 42.5952 -1.2 -9.67106 -3.00151e+06 -2.09532e+06 -3.47042e+06 -245652 909547 -293568 
234 1 Mg 7.48321 -4.51608 42.4192 1.2 -7.33261 2.65233e+06 -70869 641922 -1.26032e+06 -1.29004e+06 -1.04179e+06 
235 1 Mg 4.66329 -5.9842 42.1004 1.2 -7.83736 -677433 1.80553e+06 3.66957e+06 -196947 731716 150435 
236 2 Si 6.49537 -5.42264 40.0129 2.4 -32.2363 7.88363e+06 6.27883e+06 9.23177e+06 -36228.1 137647 523669 
237 3 O 6.57683 -5.01603 38.5029 -1.2 -10.1268 -2.15426e+06 -2.29382e+06 -2.9197e+06 99876.7 -376234 -513110 
238 3 O 5.83513 -6.83814 40.3544 -1.2 -9.63789 -2.27156e+06 -1.08628e+06 -4.24984e+06 -448374 -302901 -583997 
239 3 O 5.83511 -4.36928 41.0183 -1.2 -9.6381 -2.2694e+06 -1.78582e+06 -3.54766e+06 537942 -36057.6 626597 
240 3 O 7.98197 -5.60343 40.6849 -1.2 -9.67049 -3.00115e+06 -2.09627e+06 -3.46853e+06 -245126 911783 -293574 
241 1 Mg 9.76015 -7.83375 48.9725 1.2 -7.83499 -679132 1.79808e+06 3.67296e+06 197751 -739787 149330 
242 2 Si 11.5929 -7.13731 46.3841 2.4 -32.2334 7.87538e+06 6.27358e+06 9.23675e+06 38023.2 -140670 524018 
243 3 O 11.6733 -7.54381 47.8942 -1.2 -10.1295 -2.15022e+06 -2.28932e+06 -2.92459e+06 -100189 369542 -513301 
244 3 O 10.9332 -8.19084 45.3787 -1.2 -9.63844 -2.26815e+06 -1.78175e+06 -3.55202e+06 -537204 31243.1 623962 
245 3 O 10.9326 -5.72184 46.0426 -1.2 -9.63942 -2.2682e+06 -1.0841e+06 -4.25127e+06 447671 298575 -582081 
246 3 O 13.0797 -6.95632 45.7126 -1.2 -9.67213 -2.99988e+06 -2.09541e+06 -3.47445e+06 245103 -917868 -293211 
247 1 Mg 5.20316 -9.51236 43.6589 1.2 -7.83686 -676627 1.80192e+06 3.67058e+06 198278 -739706 149880 
248 2 Si 3.37045 -10.2087 46.2476 2.4 -32.2337 7.87549e+06 6.27386e+06 9.23698e+06 37460.6 -140553 523100 
249 3 O 3.29003 -9.80228 44.7375 -1.2 -10.1281 -2.15169e+06 -2.28975e+06 -2.92202e+06 -100055 369652 -512268 
250 3 O 4.0301 -9.15519 47.253 -1.2 -9.63901 -2.2675e+06 -1.78155e+06 -3.55358e+06 -537315 31061.9 623673 
251 3 O 4.03075 -11.6242 46.5892 -1.2 -9.63931 -2.26712e+06 -1.08232e+06 -4.25157e+06 447445 298867 -581111 
252 3 O 1.88364 -10.3897 46.9191 -1.2 -9.67254 -2.99934e+06 -2.09487e+06 -3.47591e+06 245393 -917843 -293438 
253 1 Mg 7.48168 -8.67302 46.3158 1.2 -7.33156 2.65158e+06 -1.39372e+06 1.96679e+06 1.73683e+06 -481063 1.23802e+06 
254 1 Mg 10.3018 -10.1032 45.8553 1.2 -7.83632 -679418 1.80331e+06 3.67108e+06 -196833 731856 150033 
255 2 Si 8.46961 -10.6649 47.9428 2.4 -32.2314 7.87545e+06 6.2708e+06 9.23995e+06 -36210.4 138036 523239 
256 3 O 8.38806 -11.0716 49.4529 -1.2 -10.1301 -2.14871e+06 -2.2884e+06 -2.92216e+06 99952.5 -377070 -514160 
257 3 O 9.12984 -9.2494 47.6015 -1.2 -9.64029 -2.26853e+06 -1.08271e+06 -4.25402e+06 -448586 -303130 -583544 
258 3 O 9.12989 -11.7183 46.9375 -1.2 -9.63994 -2.26661e+06 -1.78226e+06 -3.55133e+06 537719 -35436.9 626660 
259 3 O 6.98302 -10.4841 47.2709 -1.2 -9.67258 -2.99819e+06 -2.09287e+06 -3.47107e+06 -245103 910010 -293518 
260 1 Mg 7.48135 -5.77456 47.095 1.2 -7.33098 2.65015e+06 -72910.1 643898 -1.26037e+06 -1.29044e+06 -1.04227e+06 
261 1 Mg 4.66156 -7.24286 46.7761 1.2 -7.83613 -680560 1.80338e+06 3.67167e+06 -197097 731793 150326 
262 2 Si 6.49373 -6.68117 44.6887 2.4 -32.2337 7.87946e+06 6.27529e+06 9.2345e+06 -36686.5 137398 523602 
263 3 O 6.57529 -6.2746 43.1787 -1.2 -10.1282 -2.15222e+06 -2.29156e+06 -2.92199e+06 100395 -376797 -512424 
264 3 O 5.83349 -8.09669 45.0302 -1.2 -9.6391 -2.26929e+06 -1.08352e+06 -4.25148e+06 -448093 -303108 -584014 
265 3 O 5.83342 -5.62782 45.6941 -1.2 -9.63944 -2.26764e+06 -1.78346e+06 -3.54974e+06 538254 -36117.1 627016 
266 3 O 7.98031 -6.86193 45.3607 -1.2 -9.67182 -2.99939e+06 -2.09355e+06 -3.47002e+06 -245081 910725 -293899 
267 1 Mg 9.75853 -9.09274 53.6483 1.2 -7.83389 -681802 1.79626e+06 3.67506e+06 197750 -739224 148900 
268 2 Si 11.5911 -8.39633 51.0598 2.4 -32.2302 7.86956e+06 6.26843e+06 9.24348e+06 38022.3 -140530 522813 
269 3 O 11.6716 -8.80288 52.57 -1.2 -10.1307 -2.1476e+06 -2.28629e+06 -2.92301e+06 -100803 370442 -513635 
270 3 O 10.9315 -9.44987 50.0544 -1.2 -9.64024 -2.26588e+06 -1.78043e+06 -3.55474e+06 -537438 31350.2 623418 
271 3 O 10.9308 -6.9809 50.7183 -1.2 -9.64095 -2.26653e+06 -1.08194e+06 -4.25387e+06 448450 298982 -582110 
272 3 O 13.0779 -8.21521 50.3884 -1.2 -9.67384 -2.9979e+06 -2.0931e+06 -3.47694e+06 245627 -916770 -293868 
273 1 Mg 5.20138 -10.7711 48.3348 1.2 -7.83537 -679029 1.79942e+06 3.67258e+06 198246 -739735 149690 
274 2 Si 3.36871 -11.4678 50.9233 2.4 -32.23 7.87019e+06 6.26856e+06 9.24332e+06 38340.9 -140468 523132 
275 3 O 3.28828 -11.0611 49.4132 -1.2 -10.1298 -2.14907e+06 -2.28742e+06 -2.92359e+06 -100205 370077 -513591 
276 3 O 4.0291 -12.8832 51.2648 -1.2 -9.64115 -2.26603e+06 -1.08169e+06 -4.25423e+06 447878 299016 -582381 