 # Forsterite - Mg2 Si O4
 
         112  atoms
           3  atom types
 
      0.000000000000      20.397000000000  xlo xhi
      0.000000000000      11.958400000000  ylo yhi
      0.000000000000       4.749000000000  zlo zhi
 
Masses
 
            1   24.30500000             # Mg
            2   28.08500000             # Si
            3   15.99900000             # O
 
Atoms # charge
 
         1    1   0.000000        0.000000000000       0.000000000000       0.000000000000
         2    1   0.000000        7.370455950000       4.484400000000       4.707683700000
         3    2   0.000000        9.239841000000       4.484400000000       2.023548900000
         4    3   0.000000        9.261257850000       4.484400000000       3.636784200000
         5    3   0.000000        5.639770500000       4.484400000000       1.049529000000
         6    3   0.000000        8.536144500000       5.782484320000       1.317372600000
         7    1   0.000000        0.000000000000       2.989600000000       0.000000000000
         8    3   0.000000        8.536144500000       3.186315680000       1.317372600000
         9    1   0.000000        2.828044050000       1.494800000000       0.041316300000
        10    2   0.000000        0.958659000000       1.494800000000       2.725451100000
        11    3   0.000000        0.937242150000       1.494800000000       1.112215800000
        12    3   0.000000        4.558729500000       1.494800000000       3.699471000000
        13    3   0.000000        1.662355500000       2.792884320000       3.431627400000
        14    3   0.000000        1.662355500000       0.196715680000       3.431627400000
        15    1   0.000000        5.099250000000       2.989600000000       2.374500000000
        16    1   0.000000        7.927294050000       1.494800000000       2.333183700000
        17    2   0.000000        6.057909000000       1.494800000000       4.398048900000
        18    3   0.000000        6.036492150000       1.494800000000       6.011284200000
        19    3   0.000000       -0.540520500000       1.494800000000       3.424029000000
        20    3   0.000000        6.761605500000       2.792884320000       3.691872600000
        21    1   0.000000        5.099250000000       5.979200000000       2.374500000000
        22    3   0.000000        6.761605500000       0.196715680000       3.691872600000
        23    1   0.000000        2.271205950000       4.484400000000       2.415816300000
        24    2   0.000000        4.140591000000       4.484400000000       0.350951100000
        25    3   0.000000        4.162007850000       4.484400000000      -1.262284200000
        26    3   0.000000       10.739020500000       4.484400000000       1.324971000000
        27    3   0.000000        3.436894500000       5.782484320000       1.057127400000
        28    3   0.000000        3.436894500000       3.186315680000       1.057127400000
        29    1   0.000000       10.198500000000       0.000000000000       0.000000000000
        30    1   0.000000       17.568955950000       4.484400000000       4.707683700000
        31    2   0.000000       19.438341000000       4.484400000000       2.023548900000
        32    3   0.000000       19.459757850000       4.484400000000       3.636784200000
        33    3   0.000000       15.838270500000       4.484400000000       1.049529000000
        34    3   0.000000       18.734644500000       5.782484320000       1.317372600000
        35    1   0.000000       10.198500000000       2.989600000000       0.000000000000
        36    3   0.000000       18.734644500000       3.186315680000       1.317372600000
        37    1   0.000000       13.026544050000       1.494800000000       0.041316300000
        38    2   0.000000       11.157159000000       1.494800000000       2.725451100000
        39    3   0.000000       11.135742150000       1.494800000000       1.112215800000
        40    3   0.000000       14.757229500000       1.494800000000       3.699471000000
        41    3   0.000000       11.860855500000       2.792884320000       3.431627400000
        42    3   0.000000       11.860855500000       0.196715680000       3.431627400000
        43    1   0.000000       15.297750000000       2.989600000000       2.374500000000
        44    1   0.000000       18.125794050000       1.494800000000       2.333183700000
        45    2   0.000000       16.256409000000       1.494800000000       4.398048900000
        46    3   0.000000       16.234992150000       1.494800000000       6.011284200000
        47    3   0.000000        9.657979500000       1.494800000000       3.424029000000
        48    3   0.000000       16.960105500000       2.792884320000       3.691872600000
        49    1   0.000000       15.297750000000       5.979200000000       2.374500000000
        50    3   0.000000       16.960105500000       0.196715680000       3.691872600000
        51    1   0.000000       12.469705950000       4.484400000000       2.415816300000
        52    2   0.000000       14.339091000000       4.484400000000       0.350951100000
        53    3   0.000000       14.360507850000       4.484400000000      -1.262284200000
        54    3   0.000000       20.937520500000       4.484400000000       1.324971000000
        55    3   0.000000       13.635394500000       5.782484320000       1.057127400000
        56    3   0.000000       13.635394500000       3.186315680000       1.057127400000
        57    1   0.000000        0.000000000000       5.979200000000       0.000000000000
        58    1   0.000000        7.370455950000      10.463600000000       4.707683700000
        59    2   0.000000        9.239841000000      10.463600000000       2.023548900000
        60    3   0.000000        9.261257850000      10.463600000000       3.636784200000
        61    3   0.000000        5.639770500000      10.463600000000       1.049529000000
        62    3   0.000000        8.536144500000      11.761684320000       1.317372600000
        63    1   0.000000        0.000000000000       8.968800000000       0.000000000000
        64    3   0.000000        8.536144500000       9.165515680000       1.317372600000
        65    1   0.000000        2.828044050000       7.474000000000       0.041316300000
        66    2   0.000000        0.958659000000       7.474000000000       2.725451100000
        67    3   0.000000        0.937242150000       7.474000000000       1.112215800000
        68    3   0.000000        4.558729500000       7.474000000000       3.699471000000
        69    3   0.000000        1.662355500000       8.772084320000       3.431627400000
        70    3   0.000000        1.662355500000       6.175915680000       3.431627400000
        71    1   0.000000        5.099250000000       8.968800000000       2.374500000000
        72    1   0.000000        7.927294050000       7.474000000000       2.333183700000
        73    2   0.000000        6.057909000000       7.474000000000       4.398048900000
        74    3   0.000000        6.036492150000       7.474000000000       6.011284200000
        75    3   0.000000       -0.540520500000       7.474000000000       3.424029000000
        76    3   0.000000        6.761605500000       8.772084320000       3.691872600000
        77    1   0.000000        5.099250000000      11.958400000000       2.374500000000
        78    3   0.000000        6.761605500000       6.175915680000       3.691872600000
        79    1   0.000000        2.271205950000      10.463600000000       2.415816300000
        80    2   0.000000        4.140591000000      10.463600000000       0.350951100000
        81    3   0.000000        4.162007850000      10.463600000000      -1.262284200000
        82    3   0.000000       10.739020500000      10.463600000000       1.324971000000
        83    3   0.000000        3.436894500000      11.761684320000       1.057127400000
        84    3   0.000000        3.436894500000       9.165515680000       1.057127400000
        85    1   0.000000       10.198500000000       5.979200000000       0.000000000000
        86    1   0.000000       17.568955950000      10.463600000000       4.707683700000
        87    2   0.000000       19.438341000000      10.463600000000       2.023548900000
        88    3   0.000000       19.459757850000      10.463600000000       3.636784200000
        89    3   0.000000       15.838270500000      10.463600000000       1.049529000000
        90    3   0.000000       18.734644500000      11.761684320000       1.317372600000
        91    1   0.000000       10.198500000000       8.968800000000       0.000000000000
        92    3   0.000000       18.734644500000       9.165515680000       1.317372600000
        93    1   0.000000       13.026544050000       7.474000000000       0.041316300000
        94    2   0.000000       11.157159000000       7.474000000000       2.725451100000
        95    3   0.000000       11.135742150000       7.474000000000       1.112215800000
        96    3   0.000000       14.757229500000       7.474000000000       3.699471000000
        97    3   0.000000       11.860855500000       8.772084320000       3.431627400000
        98    3   0.000000       11.860855500000       6.175915680000       3.431627400000
        99    1   0.000000       15.297750000000       8.968800000000       2.374500000000
       100    1   0.000000       18.125794050000       7.474000000000       2.333183700000
       101    2   0.000000       16.256409000000       7.474000000000       4.398048900000
       102    3   0.000000       16.234992150000       7.474000000000       6.011284200000
       103    3   0.000000        9.657979500000       7.474000000000       3.424029000000
       104    3   0.000000       16.960105500000       8.772084320000       3.691872600000
       105    1   0.000000       15.297750000000      11.958400000000       2.374500000000
       106    3   0.000000       16.960105500000       6.175915680000       3.691872600000
       107    1   0.000000       12.469705950000      10.463600000000       2.415816300000
       108    2   0.000000       14.339091000000      10.463600000000       0.350951100000
       109    3   0.000000       14.360507850000      10.463600000000      -1.262284200000
       110    3   0.000000       20.937520500000      10.463600000000       1.324971000000
       111    3   0.000000       13.635394500000      11.761684320000       1.057127400000
       112    3   0.000000       13.635394500000       9.165515680000       1.057127400000
