ITEM: TIMESTEP
0
ITEM: NUMBER OF ATOMS
269
ITEM: BOX BOUNDS pp pp pp
0	17.5532
0	117.998
0	159.277
ITEM: ATOMS id type element xu yu zu Steinhardt[1] Steinhardt[2]
1 1 Ni 0 0 0 0.45684897028324367 1.3012981478703949
2 1 Ni 0 0 0 0.359804426374556 1.3420643391707903
3 1 Ni 0 0 0 0.4279132379113913 1.2619374127240515
4 1 Ni 0 0 0 0.5152555046172834 1.4741716884937528
5 1 Ni 0 0 0 0.03727232827175858 0.9746524805776677
6 1 Ni 0 0 0 0.3784960320037973 1.3588879955619213
7 1 Ni 0 0 0 0.4894279973484079 1.4212720151006641
8 1 Ni 0 0 0 0.1792701969694312 1.044450902715442
9 1 Ni 0 0 0 0.40965952161709596 1.240273037809631
10 1 Ni 0 0 0 0.40151674542046173 1.2488682788696814
11 1 Ni 0 0 0 0.5721279863275542 1.4269462467817977
12 1 Ni 0 0 0 0.6859398211950232 1.6069059641434658
13 1 Ni 0 0 0 0.7697508786993161 1.6131685486860625
14 1 Ni 0 0 0 0.4713865498940657 1.3146491997362109
15 1 Ni 0 0 0 0.59019907007233 1.4664395351963952
16 1 Ni 0 0 0 0.7510805111252499 1.4716410935338062
17 1 Ni 0 0 0 0.25220010752541155 1.2128374977019027
18 1 Ni 0 0 0 0.05175693792679503 0.9453465624811117
19 1 Ni 0 0 0 0.26514258925436573 1.3249052650217792
20 1 Ni 0 0 0 0.24263475117076916 1.0497210607134655
21 1 Ni 0 0 0 0.11620490231240488 1.1029213837990302
22 1 Ni 0 0 0 0.2999310801627918 1.0792041683584472
23 1 Ni 0 0 0 0.46957969333942634 1.425271222186086
24 1 Ni 0 0 0 0.1157092229878432 1.054425953311693
25 1 Ni 0 0 0 0.3111137782276388 1.1919713776060543
26 1 Ni 0 0 0 0.4349455508821794 1.3119196085926699
27 1 Ni 0 0 0 0.38746283570102297 1.3241236652264243
28 1 Ni 0 0 0 0.3675461519203133 1.4434740210106813
29 1 Ni 0 0 0 0.3474258541751384 1.2521971425344571
30 1 Ni 0 0 0 0.44915398016153046 1.2517331292792355
31 1 Ni 0 0 0 0.5241628128179193 1.529906962787551
32 1 Ni 0 0 0 0.19944602061038239 1.2053921443277806
33 1 Ni 0 0 0 0.4029779568570998 1.273687409975094
34 1 Ni 0 0 0 0.23604185154374074 1.3392465349466598
35 1 Ni 0 0 0 0.24644445385497588 1.2770344877265516
36 1 Ni 0 0 0 0.3556437042859146 1.4150172635240836
37 1 Ni 0 0 0 0.3546166183332873 1.1894390714064513
38 1 Ni 0 0 0 0.34743622481225883 1.14098098137056
39 1 Ni 0 0 0 0.21652344525021208 1.3240928148578979
40 1 Ni 0 0 0 0.540534646700883 1.3968255312347053
41 1 Ni 0 0 0 0.2752391538933481 1.184508079267378
42 1 Ni 0 0 0 0.11948481391953725 1.3163438853472058
43 1 Ni 0 0 0 0.6057235890868587 1.6619648414947594
44 1 Ni 0 0 0 0.14746328570662112 1.1001082072562174
45 1 Ni 0 0 0 0.6054439625595434 1.5135223082938798
46 1 Ni 0 0 0 0.47365472478003945 1.2197373704481196
47 1 Ni 0 0 0 0.06327258158354562 0.9792892840272982
48 1 Ni 0 0 0 0.3492941175141953 1.1904947232200362
49 1 Ni 0 0 0 0.46276735639194677 1.519878915484321
50 1 Ni 0 0 0 0.23059791684541936 1.4736623075344448
51 1 Ni 0 0 0 0.12401456592500759 0.9845867232658501
52 1 Ni 0 0 0 0.09759428084203628 1.0732064646059334
53 1 Ni 0 0 0 -0.033726587573124356 0.9445180177661876
54 1 Ni 0 0 0 0.2470461717658695 1.3199336408446927
55 1 Ni 0 0 0 0.21224513357367158 1.23158334556092
56 1 Ni 0 0 0 -0.05990301212158905 1.0216964496761956
57 1 Ni 0 0 0 0.26009053212226846 1.2817083158313491
58 1 Ni 0 0 0 0.2832278429101755 1.2611095938931025
59 1 Ni 0 0 0 0.1976604564952901 1.3585763097712236
60 1 Ni 0 0 0 0.2786580164305663 1.2512060967829657
61 1 Ni 0 0 0 0.48879252878333923 1.3663326856049458
62 1 Ni 0 0 0 0.2874107484909574 1.5902748605632004
63 1 Ni 0 0 0 0.4076714342954697 1.2075050789034645
64 1 Ni 0 0 0 0.07942593530844944 0.985751764231561
65 1 Ni 0 0 0 0.48516812514253493 1.3522581748136033
66 1 Ni 0 0 0 0.33360618888477994 1.2432015866167594
67 1 Ni 0 0 0 0.4005119689230964 1.2299629863731008
68 1 Ni 0 0 0 0.3526632731182677 1.4796994729637605
69 1 Ni 0 0 0 0.3633420580259388 1.2622533668641016
70 1 Ni 0 0 0 0.3334626517143098 1.3890291866001074
71 1 Ni 0 0 0 0.32947599504118363 1.4721918164503833
72 1 Ni 0 0 0 0.3876442034685773 1.3045063283069198
73 1 Ni 0 0 0 -0.053391176741808544 1.2350034864132127
74 1 Ni 0 0 0 0.5542140731707519 1.3444838916120583
75 1 Ni 0 0 0 0.17479812774293976 1.1344744539065754
76 1 Ni 0 0 0 0.37367708757315465 1.2998707797688684
77 1 Ni 0 0 0 0.15531564447394527 1.1695330174632772
78 1 Ni 0 0 0 0.07170072383372633 0.9688338985461649
79 1 Ni 0 0 0 0.5859839540295693 1.5714192522130943
80 1 Ni 0 0 0 0.0597546578009385 1.2517519604954703
81 1 Ni 0 0 0 0.3957915291911298 1.3774218842007302
82 1 Ni 0 0 0 0.2523707522606796 1.2876779454106926
83 1 Ni 0 0 0 0.26136076994833224 1.1678465351852514
84 1 Ni 0 0 0 0.2887027443258842 1.0822023180611269
85 1 Ni 0 0 0 0.3101092771354262 1.1854321450346073
86 1 Ni 0 0 0 0.10582556231910972 1.0532747587302114
87 1 Ni 0 0 0 0.19289073847167404 1.005309326960228
88 1 Ni 0 0 0 0.4993175004600161 1.505885752896968
89 1 Ni 0 0 0 0.37201617334906617 1.370236238550872
90 1 Ni 0 0 0 0.4576807118365792 1.422962699227227
91 1 Ni 0 0 0 0.37058491228865265 1.207258587117624
92 1 Ni 0 0 0 0.10384408778216997 1.074243382194748
93 1 Ni 0 0 0 0.46272734663552584 1.1704481338748107
94 1 Ni 0 0 0 0.09320667375685576 1.008350735953384
95 1 Ni 0 0 0 0.3821843641782791 1.3529649304318114
96 1 Ni 0 0 0 0.17974730657156085 1.1646439634447574
97 1 Ni 0 0 0 0.21010579037745147 1.3957481960397113
98 1 Ni 0 0 0 0.36588136768293417 1.3092152404437893
99 1 Ni 0 0 0 0.4666254904569315 1.6606345586808242
100 1 Ni 0 0 0 0.526609980250452 1.4652401800902468
101 1 Ni 0 0 0 0.6035141879072937 1.5658495402214219
102 1 Ni 0 0 0 0.3059085363611412 1.3541044732242695
103 1 Ni 0 0 0 0.32965253310565373 1.4335925017124864
104 1 Ni 0 0 0 0.3074408808789972 1.3093752817235986
105 1 Ni 0 0 0 0.012594783389255515 0.8373704612848067
106 1 Ni 0 0 0 0.6457542816592634 1.1763098070274864
107 1 Ni 0 0 0 0.20546438256818148 1.250416528150154
108 1 Ni 0 0 0 0.4623534635571032 1.4692393679373943
109 1 Ni 0 0 0 0.48397191514516136 1.2347258783881516
110 1 Ni 0 0 0 0.5229703946430483 1.5064103278837888
111 1 Ni 0 0 0 0.11206110270511427 1.0160844180911874
112 1 Ni 0 0 0 0.5694370099306842 1.5655208236902625
113 1 Ni 0 0 0 0.4609715479946155 1.472830931943699
114 1 Ni 0 0 0 0.4817769883966905 1.560366276147231
115 1 Ni 0 0 0 0.5308370828685156 1.4316979807542383
116 1 Ni 0 0 0 0.20703761606374232 1.2599424542012183
117 1 Ni 0 0 0 -0.105553670246608 1.0769975236482394
118 1 Ni 0 0 0 0.3188515862554927 1.3484385784807156
119 1 Ni 0 0 0 0.6173714678337417 1.2277464336026018
120 1 Ni 0 0 0 0.48023043083305117 1.210613482268297
121 1 Ni 0 0 0 0.0772274689884555 1.0317521155867544
122 1 Ni 0 0 0 0.1342039498469695 0.8852412976586426
123 1 Ni 0 0 0 0.5097049260539842 1.3553863361244465
124 1 Ni 0 0 0 0.05941684207000403 0.8427872247331636
125 1 Ni 0 0 0 0.44622666552043966 1.3925759627121237
126 1 Ni 0 0 0 0.8126591251979003 1.7118063226874205
127 1 Ni 0 0 0 0.2406789045364492 1.3189645083373631
128 1 Ni 0 0 0 0.39275924623206065 1.3018772434213648
129 1 Ni 0 0 0 0.026251509709221355 1.009090789269862
130 1 Ni 0 0 0 0.22108669716528373 1.2267118592551207
131 1 Ni 0 0 0 0.523969786159052 1.4528024860423139
132 1 Ni 0 0 0 0.295775605882068 1.1397444908242789
133 1 Ni 0 0 0 0.4747045714728215 1.3490455617523585
134 1 Ni 0 0 0 0.36680417542035876 1.2926646608952532
135 1 Ni 0 0 0 0.019200643876293555 1.125179603839496
136 1 Ni 0 0 0 0.6406101746030369 1.625915319806089
137 1 Ni 0 0 0 -0.2046478541527585 1.0504359650024118
138 1 Ni 0 0 0 0.5921386619508502 1.5923043309445193
139 1 Ni 0 0 0 0.20146249780594777 1.0547380887200672
140 1 Ni 0 0 0 0.06996946548058758 1.207067903697794
141 1 Ni 0 0 0 0.7154850349237831 1.325885571467527
142 1 Ni 0 0 0 0.029808771914971832 0.9427606278893965
143 1 Ni 0 0 0 0.439209199639618 1.4869163090145292
144 1 Ni 0 0 0 0.39140029397914333 1.3919640647905656
145 1 Ni 0 0 0 0.09687645372767634 1.1067675606773775
146 1 Ni 0 0 0 0.4071683007290674 1.438249305274329
147 1 Ni 0 0 0 0.41990369279404594 1.4369469268691115
148 1 Ni 0 0 0 0.4850547560926133 1.466460774074032
149 1 Ni 0 0 0 0.22457232656506956 1.104853877971623
150 1 Ni 0 0 0 0.467139102518092 1.3352995568978443
151 1 Ni 0 0 0 0.30037091078989986 1.3193488521324395
152 1 Ni 0 0 0 0.08448985589085534 1.3226324825205857
153 1 Ni 0 0 0 0.10233766397537741 1.0518270967762904
154 1 Ni 0 0 0 -0.07031678038884165 0.8394549274478187
155 1 Ni 0 0 0 0.21346068432799178 1.2271634787783356
156 1 Ni 0 0 0 0.13624320855653071 1.2168916612368426
157 1 Ni 0 0 0 0.04232741288711006 0.9432149593386885
158 1 Ni 0 0 0 0.21490548195315823 1.35835101879433
159 1 Ni 0 0 0 0.29677624903013455 1.2699112319557027
160 1 Ni 0 0 0 0.42140106784389375 1.3014580743462538
161 1 Ni 0 0 0 0.24419007060926648 1.2335618509541775
162 1 Ni 0 0 0 0.12113828179408109 1.2073162618893825
163 1 Ni 0 0 0 0.3152113342575056 1.1741390113570542
164 1 Ni 0 0 0 0.38911708544904566 1.2765365199597933
165 1 Ni 0 0 0 0.47333688106474714 1.2428847985857578
166 1 Ni 0 0 0 0.4599887411484869 1.2745312990658373
167 1 Ni 0 0 0 -0.009933920146218689 1.1047904790165102
168 1 Ni 0 0 0 0.7206358714109202 1.6632987910971808
169 1 Ni 0 0 0 0.22561063940536225 1.2311069050183359
170 1 Ni 0 0 0 0.5491593573739896 1.558370817163138
171 1 Ni 0 0 0 0.0951959778139354 1.074828337098961
172 1 Ni 0 0 0 0.3359908270019055 1.2900311147123522
173 1 Ni 0 0 0 0.38552242529444114 1.2916061611386913
174 1 Ni 0 0 0 0.25623509388491456 1.3675569279416415
175 1 Ni 0 0 0 0.5178406491783075 1.535869400259234
176 1 Ni 0 0 0 -0.11846793172986175 0.9635715044792139
177 1 Ni 0 0 0 0.293625208205789 1.2752871762283748
178 1 Ni 0 0 0 0.38584511742223315 1.2329208372679523
179 1 Ni 0 0 0 0.09285813250390154 1.1948187573335436
180 1 Ni 0 0 0 0.4233963419615895 1.360158035786177
181 1 Ni 0 0 0 0.2797723579095054 1.0620949652407095
182 1 Ni 0 0 0 0.22047051838682286 1.0647293755511749
183 1 Ni 0 0 0 0.537749011243454 1.4314894956753577
184 1 Ni 0 0 0 0.3149646975033614 1.168663904916227
185 1 Ni 0 0 0 0.4245144106864281 1.2489533401013972
186 1 Ni 0 0 0 0.18423349378337778 1.1044582532422922
187 1 Ni 0 0 0 0.20247968459595433 1.2594844462775667
188 1 Ni 0 0 0 0.5470961803990344 1.335611774943768
189 1 Ni 0 0 0 -0.003518238201434376 1.0677899479792883
190 1 Ni 0 0 0 0.34419455119651154 1.3409645568507702
191 1 Ni 0 0 0 0.6067789641675165 1.677188593936886
192 1 Ni 0 0 0 0.5017350667747585 1.3459928634019847
193 1 Ni 0 0 0 0.1983096259611994 1.1336387473906013
194 1 Ni 0 0 0 0.47866597141493994 1.3361233279541085
195 1 Ni 0 0 0 -0.05766616226112342 0.9377083220255462
196 1 Ni 0 0 0 -0.11737405001702983 0.9607767759834361
197 1 Ni 0 0 0 0.40642877804772165 1.5571377781520426
198 1 Ni 0 0 0 0.28588525348110705 1.1492658057492804
199 1 Ni 0 0 0 0.40901091274366597 1.3180353596441663
200 1 Ni 0 0 0 0.3278008342096564 1.0493797675227134
201 1 Ni 0 0 0 0.15076924559375052 1.1866103773317012
202 1 Ni 0 0 0 0.21564652233271014 1.252164455392676
203 1 Ni 0 0 0 0.40268440115314513 1.2985804194133495
204 1 Ni 0 0 0 0.19727955675898637 1.1970918512360855
205 1 Ni 0 0 0 0.4225685331049833 1.4718159683601646
206 1 Ni 0 0 0 0.3990444841143233 1.2090629290470383
207 1 Ni 0 0 0 0.2017075220765793 1.2073142603451539
208 1 Ni 0 0 0 0.3112709371527003 1.1976697004893015
209 1 Ni 0 0 0 0.7350844009545583 1.5033897313318731
210 1 Ni 0 0 0 -0.03582458936653432 0.9909103840029914
211 1 Ni 0 0 0 0.26200962333555144 1.1175832310561007
212 1 Ni 0 0 0 0.3492024923741694 1.3533565195890236
213 1 Ni 0 0 0 0.23811523597565648 1.0504541305829065
214 1 Ni 0 0 0 0.43660972850569124 1.2715535352544287
215 1 Ni 0 0 0 0.6027401296035046 1.5107257536159622
216 1 Ni 0 0 0 0.1923827127323582 1.3560297768903782
217 1 Ni 0 0 0 0.003751753135976643 0.8196581532507647
218 1 Ni 0 0 0 0.15465890762684778 0.8617120639858287
219 1 Ni 0 0 0 0.4986296250632507 1.6238297889405213
220 1 Ni 0 0 0 0.21326095763115038 1.294934972747048
221 1 Ni 0 0 0 0.22415803459075867 1.4140902214949596
222 1 Ni 0 0 0 0.5288980893507809 1.4709412579861838
223 1 Ni 0 0 0 0.22800604438500077 1.2013485413088512
224 1 Ni 0 0 0 0.4000998492732176 1.3216780261550989
225 1 Ni 0 0 0 0.3186801400702098 1.168718579512461
226 1 Ni 0 0 0 0.18390756627336213 1.4442474495039377
227 1 Ni 0 0 0 0.23207325215302083 1.1696483497989434
228 1 Ni 0 0 0 0.4106437584297221 1.4456411146171428
229 1 Ni 0 0 0 0.1979502293639545 1.2217870829539021
230 1 Ni 0 0 0 0.2608331605972152 1.274289631912344
231 1 Ni 0 0 0 0.3467016679358612 1.4393730650270327
232 1 Ni 0 0 0 0.24903389403635648 1.2259702230940084
233 1 Ni 0 0 0 0.11526362742740676 1.2370076863549309
234 1 Ni 0 0 0 -0.04075499259421095 0.8799048319767293
235 1 Ni 0 0 0 -0.11702501056293224 0.831000284035754
236 1 Ni 0 0 0 0.10739624405808393 0.890477154423642
237 1 Ni 0 0 0 0.7382511040389761 1.6132844039543752
238 1 Ni 0 0 0 0.25411979603511203 1.252006605047094
239 1 Ni 0 0 0 0.2614092803971151 1.2005497824216107
240 1 Ni 0 0 0 0.5078518819785309 1.64118280312017
241 1 Ni 0 0 0 0.020115371994390674 1.2229405889812306
242 1 Ni 0 0 0 0.43266188540807626 1.2991427191839586
243 1 Ni 0 0 0 0.40195588078152666 1.229458931177095
244 1 Ni 0 0 0 0.3401759513761648 1.1350643918292609
245 1 Ni 0 0 0 0.5231839734691451 1.3432035077524422
246 1 Ni 0 0 0 0.08767598138353566 1.1405275030145259
247 1 Ni 0 0 0 0.7024858158239679 1.5426677688290997
248 1 Ni 0 0 0 0.32436366818298795 1.3579750826189618
249 1 Ni 0 0 0 0.7749925901144553 1.6466400491880069
250 1 Ni 0 0 0 0.1963432146164319 1.1909537056783501
251 1 Ni 0 0 0 0.32955668287818973 1.3130687547953954
252 1 Ni 0 0 0 0.1713564971450144 0.9842089923308464
253 1 Ni 0 0 0 0.4193676804380694 1.4540099535827549
254 1 Ni 0 0 0 0.6216144642671486 1.6074713496532156
255 1 Ni 0 0 0 0.27267994981202237 1.1948124495694012
256 1 Ni 0 0 0 0.18371517621860903 1.1938583176468858
257 1 Ni 0 0 0 0.3564436141236799 1.0363721065013844
258 1 Ni 0 0 0 0.5104623773613455 1.5757729213006753
259 1 Ni 0 0 0 0.6339927704110413 1.4348473261009465
260 1 Ni 0 0 0 0.023084391502481538 1.1709774125632326
261 1 Ni 0 0 0 0.3108044988638668 1.32586114614993
262 1 Ni 0 0 0 0.33501165745500183 1.3135741144526176
263 1 Ni 0 0 0 0.40691944876506464 1.2594054637559986
264 1 Ni 0 0 0 0.3964064927366674 1.29445950256693
265 1 Ni 0 0 0 0.32806866443732463 1.1819551723357278
266 1 Ni 0 0 0 0.2629220977834424 1.148376032993076
267 1 Ni 0 0 0 0.5978529907055342 1.4945073493227001
268 1 Ni 0 0 0 0.4800148277049786 1.4060638127615803
269 1 Ni 0 0 0 0.3846189750336658 1.6227458712989362
