ITEM: TIMESTEP
0
ITEM: NUMBER OF ATOMS
159
ITEM: BOX BOUNDS pp pp pp
0	17.5532
0	117.998
0	159.277
ITEM: ATOMS id type element xu yu zu Steinhardt[1] Steinhardt[2]
1 2 Ag 0 0 0 2.9375726732195555 2.723375757593768
2 2 Ag 0 0 0 2.987967250339288 2.8398431054475206
3 2 Ag 0 0 0 2.8974283269610983 2.616036853954537
4 2 Ag 0 0 0 3.025223409397868 2.7181492743907008
5 2 Ag 0 0 0 2.5532351077286766 2.3575545419747614
6 2 Ag 0 0 0 2.8082958288048347 2.5396588998967693
7 2 Ag 0 0 0 2.989268072958402 2.75857877151092
8 2 Ag 0 0 0 2.8476376465193605 2.586516974139815
9 2 Ag 0 0 0 2.7224726967767303 2.4269663897528235
10 2 Ag 0 0 0 2.6452598931077995 2.4815659815362596
11 2 Ag 0 0 0 2.60905409207358 2.316156332090408
12 2 Ag 0 0 0 2.793228681710989 2.6030434167309235
13 2 Ag 0 0 0 2.8797788936748794 2.621600357787318
14 2 Ag 0 0 0 3.2271050868241797 3.1258909972700066
15 2 Ag 0 0 0 2.6262515913931086 2.39484517227832
16 2 Ag 0 0 0 2.9411732786625984 2.7916114170028097
17 2 Ag 0 0 0 2.906929652528973 2.6910335413680784
18 2 Ag 0 0 0 2.5642104695263455 2.206841138063303
19 2 Ag 0 0 0 2.978768318355797 2.6957779885238224
20 2 Ag 0 0 0 2.786666265106805 2.5830145550870394
21 2 Ag 0 0 0 2.898317275017655 2.7722879552059303
22 2 Ag 0 0 0 2.8729357596753204 2.7051845047396097
23 2 Ag 0 0 0 2.631994140662522 2.361318744765267
24 2 Ag 0 0 0 2.841912308977693 2.645804550354528
25 2 Ag 0 0 0 2.883725297802281 2.6514713013526787
26 2 Ag 0 0 0 3.222851485923134 3.0690683976249056
27 2 Ag 0 0 0 2.8451479332331826 2.6258850453069913
28 2 Ag 0 0 0 2.932356093043892 2.73499787481134
29 2 Ag 0 0 0 3.0909056233044243 2.906045703657132
30 2 Ag 0 0 0 2.78335064145588 2.534696418460996
31 2 Ag 0 0 0 3.1002429011441426 2.9476365829100044
32 2 Ag 0 0 0 3.174205758505288 3.0606493850374004
33 2 Ag 0 0 0 3.1385388482784378 3.0146737272516186
34 2 Ag 0 0 0 2.897378896778984 2.66325685600829
35 2 Ag 0 0 0 2.8442323741720705 2.72745290968456
36 2 Ag 0 0 0 2.5413431829107416 2.2206532666492316
37 2 Ag 0 0 0 2.9091761610450653 2.7153663506126584
38 2 Ag 0 0 0 2.799587950113763 2.653448530494537
39 2 Ag 0 0 0 2.9978766459831645 2.818886482121808
40 2 Ag 0 0 0 3.044007320758945 2.9331602754848483
41 2 Ag 0 0 0 2.908763861613922 2.8356491211877657
42 2 Ag 0 0 0 3.097610544915801 2.8595564800942923
43 2 Ag 0 0 0 3.0256375867066403 2.908566110360182
44 2 Ag 0 0 0 3.0908947104480413 2.932178619857501
45 2 Ag 0 0 0 2.682324085839771 2.5354315083824104
46 2 Ag 0 0 0 2.5878753037526105 2.393886974957189
47 2 Ag 0 0 0 2.901807223826942 2.7405103484257505
48 2 Ag 0 0 0 2.744543163085199 2.559192289369745
49 2 Ag 0 0 0 2.9152539062169796 2.7109885198896864
50 2 Ag 0 0 0 2.709077280613792 2.4580989678329743
51 2 Ag 0 0 0 3.312223130460226 3.0549697648890546
52 2 Ag 0 0 0 3.087201703022888 2.9772440049322184
53 2 Ag 0 0 0 2.85539729889492 2.6851455736471372
54 2 Ag 0 0 0 2.8457886269149864 2.671285679458827
55 2 Ag 0 0 0 3.1811856913445484 2.9579907605799005
56 2 Ag 0 0 0 3.197190848175173 2.9811507831811133
57 2 Ag 0 0 0 2.9551410016197854 2.7149931802157954
58 2 Ag 0 0 0 2.884439531013943 2.6338036800529996
59 2 Ag 0 0 0 2.996347601918603 2.852973988587957
60 2 Ag 0 0 0 3.0038017892499367 2.8051097688258713
61 2 Ag 0 0 0 2.5763387096625383 2.371170571924496
62 2 Ag 0 0 0 2.747782269416817 2.5656497758680805
63 2 Ag 0 0 0 2.9518450490012897 2.717809840836402
64 2 Ag 0 0 0 3.1578801920532804 2.9755062098976137
65 2 Ag 0 0 0 2.718515843666307 2.4492751412525324
66 2 Ag 0 0 0 2.8974611626214593 2.7763100196738444
67 2 Ag 0 0 0 2.5205160787473315 2.2417306316949777
68 2 Ag 0 0 0 2.932548522842119 2.7192469167083018
69 2 Ag 0 0 0 2.828436484098721 2.6556947814477168
70 2 Ag 0 0 0 2.724239401299706 2.518189680346879
71 2 Ag 0 0 0 3.2038152489448706 3.051411551352319
72 2 Ag 0 0 0 2.98027046686454 2.743730046399325
73 2 Ag 0 0 0 3.0104624824142867 2.859285390981229
74 2 Ag 0 0 0 2.640299634760143 2.4076602038594253
75 2 Ag 0 0 0 3.014013372284083 2.810676279989116
76 2 Ag 0 0 0 3.2524251509694513 3.0761448969639233
77 2 Ag 0 0 0 2.634778100284534 2.3399305862642845
78 2 Ag 0 0 0 2.6499377088707963 2.4639355166136254
79 2 Ag 0 0 0 2.792934802113002 2.681813187305678
80 2 Ag 0 0 0 2.781453640005863 2.5845554904423564
81 2 Ag 0 0 0 2.924920581961742 2.6997183871959187
82 2 Ag 0 0 0 3.189425240799285 3.083571386391487
83 2 Ag 0 0 0 2.8722058659632905 2.6382329015010657
84 2 Ag 0 0 0 2.9727478359881596 2.698518554506784
85 2 Ag 0 0 0 2.886938137461025 2.635185074644897
86 2 Ag 0 0 0 2.8697256756653324 2.6646692460168877
87 2 Ag 0 0 0 2.8737228362679392 2.6285470635493335
88 2 Ag 0 0 0 2.790863598740472 2.601112458918288
89 2 Ag 0 0 0 3.009483259096327 2.819553042587911
90 2 Ag 0 0 0 3.1211607599741154 2.8960404051155266
91 2 Ag 0 0 0 3.2833950057805286 3.1975501795610253
92 2 Ag 0 0 0 3.186811261244118 3.109467164361135
93 2 Ag 0 0 0 2.840330181224007 2.6333709097173617
94 2 Ag 0 0 0 3.1349860254114534 2.967154321002921
95 2 Ag 0 0 0 2.9229635786367867 2.792062057598514
96 2 Ag 0 0 0 3.052900346045654 2.828334488698192
97 2 Ag 0 0 0 2.8749358883788076 2.6841902285567767
98 2 Ag 0 0 0 2.8925114177820515 2.7027289973842277
99 2 Ag 0 0 0 2.9489010584471456 2.7384915314041693
100 2 Ag 0 0 0 2.990675148422651 2.8361633361232994
101 2 Ag 0 0 0 2.540614700100215 2.347075694280793
102 2 Ag 0 0 0 2.6713309015248896 2.3868923466159218
103 2 Ag 0 0 0 3.180450735270476 3.0239578059014076
104 2 Ag 0 0 0 2.730766204298121 2.518617098711305
105 2 Ag 0 0 0 2.7591286162256154 2.514816312989384
106 2 Ag 0 0 0 2.8611289023702926 2.6877675409919237
107 2 Ag 0 0 0 2.6402177104755045 2.4177539422683196
108 2 Ag 0 0 0 2.76326638224023 2.5556414967881205
109 2 Ag 0 0 0 3.0979944904835026 2.860442482369353
110 2 Ag 0 0 0 2.912903407985642 2.7481289597201712
111 2 Ag 0 0 0 2.9532542659580554 2.806934493463272
112 2 Ag 0 0 0 2.6207711557825255 2.433763949509836
113 2 Ag 0 0 0 2.810915424954638 2.55267248556667
114 2 Ag 0 0 0 2.6442739632638594 2.3099250218351064
115 2 Ag 0 0 0 2.8739620416387344 2.647624945200167
116 2 Ag 0 0 0 2.852313044751453 2.5882856034073054
117 2 Ag 0 0 0 2.982784879191182 2.7277392394881184
118 2 Ag 0 0 0 2.9138606603123973 2.6544967960635892
119 2 Ag 0 0 0 2.9075703646354527 2.7392343101797816
120 2 Ag 0 0 0 2.7849237637227637 2.577184595825206
121 2 Ag 0 0 0 2.7309647754159796 2.458880455227573
122 2 Ag 0 0 0 2.94722919790921 2.832993120952453
123 2 Ag 0 0 0 2.7462032191138595 2.5259644627519533
124 2 Ag 0 0 0 2.7436769786816693 2.4193750184714005
125 2 Ag 0 0 0 3.1007644978467606 3.0236715186437055
126 2 Ag 0 0 0 2.4497375533512034 2.222552600637117
127 2 Ag 0 0 0 2.9949658176280853 2.7658708614037404
128 2 Ag 0 0 0 2.4877392626809836 2.3281421373550386
129 2 Ag 0 0 0 2.708761253060211 2.4205938210369946
130 2 Ag 0 0 0 2.713798193292565 2.4489036918762634
131 2 Ag 0 0 0 2.7032650687821107 2.4740709041131783
132 2 Ag 0 0 0 2.720066458126439 2.4542723047499244
133 2 Ag 0 0 0 3.0717636933956185 2.8885629925607503
134 2 Ag 0 0 0 3.2221838888304037 3.0894759447009745
135 2 Ag 0 0 0 3.0165787471209815 2.8864547984959485
136 2 Ag 0 0 0 3.121265386182956 2.9619985996982687
137 2 Ag 0 0 0 2.755371641702025 2.597361435116783
138 2 Ag 0 0 0 2.8894705382839305 2.76740909417293
139 2 Ag 0 0 0 3.0808379446972705 2.8874682947117365
140 2 Ag 0 0 0 3.0059330413700516 2.8146627998982288
141 2 Ag 0 0 0 2.8382412084669797 2.488196154046353
142 2 Ag 0 0 0 2.776360767692114 2.579231909877112
143 2 Ag 0 0 0 2.626025910182552 2.284528491385717
144 2 Ag 0 0 0 2.8118429140485635 2.498981077019744
145 2 Ag 0 0 0 2.604924845113721 2.3436233829833704
146 2 Ag 0 0 0 2.764941753032781 2.5067994545358876
147 2 Ag 0 0 0 2.8124919362355665 2.6690216432071545
148 2 Ag 0 0 0 3.139191738403335 2.926192349596006
149 2 Ag 0 0 0 2.8411460531281096 2.5984468139561985
150 2 Ag 0 0 0 3.061130758164121 2.8306007901181847
151 2 Ag 0 0 0 2.8486279578635543 2.7049530710397427
152 2 Ag 0 0 0 2.823035106536196 2.570444606492876
153 2 Ag 0 0 0 2.951559171581763 2.784717230995466
154 2 Ag 0 0 0 2.8198713699907194 2.62026771686311
155 2 Ag 0 0 0 2.787431187762274 2.603608033699898
156 2 Ag 0 0 0 2.8052478632038147 2.6997103690556528
157 2 Ag 0 0 0 2.6956010958135264 2.453665432403342
158 2 Ag 0 0 0 2.8188222980949984 2.6170869940823795
159 2 Ag 0 0 0 2.8521837861923602 2.6163944852011944
