 # Periclase - Mg O
 
           8  atoms
           2  atom types
 
      0.000000000000       4.216000000000  xlo xhi
      0.000000000000       4.216000000000  ylo yhi
      0.000000000000       4.216000000000  zlo zhi
 
Masses
 
            1   24.30500000             # Mg 1
            2   15.99900000             # O 1
 
Atoms # charge
 
         1    1   2.000000        0.000000000000       0.000000000000       0.000000000000
         2    2  -2.000000        2.108000000000       2.108000000000       2.108000000000
         3    1   2.000000        0.000000000000       2.108000000000       2.108000000000
         4    2  -2.000000        2.108000000000       0.000000000000       0.000000000000
         5    1   2.000000        2.108000000000       0.000000000000       2.108000000000
         6    2  -2.000000        4.216000000000       2.108000000000       0.000000000000
         7    1   2.000000        2.108000000000       2.108000000000       0.000000000000
         8    2  -2.000000        4.216000000000       0.000000000000       2.108000000000
