 # LAMMPS timestep 1922
  
       10000  atoms
           3  atom types
 
      0.000000000000     270.759000000000  xlo xhi
      0.000000000000     215.304000000000  ylo yhi
      0.000000000000      63.191000000000  zlo zhi
 
Masses
 
            1   24.30500000             # Mg
            2   28.08500000             # Si
            3   15.99900000             # O
 
Atoms # charge
 
         1    3  -1.200000      223.983000000000      78.658500000000      21.955700000000
         2    3  -1.200000      223.855000000000      84.656000000000      21.933700000000
         3    3  -1.200000      223.771000000000      90.641200000000      21.922800000000
         4    3  -1.200000      223.711000000000      96.614200000000      21.921400000000
         5    3  -1.200000      223.666000000000     102.578000000000      21.922800000000
         6    3  -1.200000      223.625000000000     108.534000000000      21.925000000000
         7    3  -1.200000      223.581000000000     114.484000000000      21.926900000000
         8    1   1.200000      223.319000000000      65.120800000000      22.813700000000
         9    2   2.400000      223.469000000000      69.604600000000      18.671400000000
        10    3  -1.200000      221.914000000000      69.576500000000      18.598800000000
        11    2   2.400000      222.906000000000      66.601600000000      16.634400000000
        12    3  -1.200000      222.267000000000      65.298800000000      15.973800000000
        13    3  -1.200000      222.182000000000      67.859300000000      15.972900000000
        14    3  -1.200000      222.246000000000      66.584700000000      18.136600000000
        15    1   1.200000      223.324000000000      66.590600000000      19.949700000000
        16    1   1.200000      223.064000000000      69.612400000000      15.340800000000
        17    1   1.200000      220.842000000000      69.588000000000      20.563200000000
        18    2   2.400000      223.516000000000      69.725700000000      29.053100000000
        19    3  -1.200000      221.948000000000      69.757000000000      29.026300000000
        20    2   2.400000      222.951000000000      66.741500000000      27.033600000000
        21    3  -1.200000      222.319000000000      65.459000000000      26.312800000000
        22    3  -1.200000      222.243000000000      68.037000000000      26.444900000000
        23    3  -1.200000      222.271000000000      66.641000000000      28.549700000000
        24    1   1.200000      223.202000000000      68.128800000000      22.866400000000
        25    1   1.200000      223.513000000000      66.686000000000      30.215200000000
        26    2   2.400000      221.228000000000      66.588400000000      21.831000000000
        27    3  -1.200000      219.674000000000      66.534100000000      21.907500000000
        28    3  -1.200000      221.947000000000      65.342100000000      21.137900000000
        29    3  -1.200000      221.854000000000      67.910100000000      21.198300000000
        30    3  -1.200000      221.903000000000      66.582500000000      23.326400000000
        31    1   1.200000      223.086000000000      71.137400000000      22.873500000000
        32    1   1.200000      223.040000000000      69.826700000000      25.782900000000
        33    2   2.400000      223.266000000000      75.597700000000      18.691600000000
        34    3  -1.200000      221.711000000000      75.565500000000      18.618500000000
        35    3  -1.200000      223.909000000000      76.896900000000      19.361400000000
        36    3  -1.200000      223.986000000000      74.339800000000      19.355500000000
        37    3  -1.200000      223.927000000000      75.618700000000      17.188300000000
        38    2   2.400000      222.698000000000      72.595400000000      16.652400000000
        39    3  -1.200000      222.058000000000      71.295100000000      15.987400000000
        40    3  -1.200000      221.976000000000      73.852000000000      15.985300000000
        41    3  -1.200000      222.038000000000      72.579500000000      18.155500000000
        42    1   1.200000      223.098000000000      72.593000000000      19.988200000000
        43    1   1.200000      222.871000000000      75.595100000000      15.346300000000
        44    1   1.200000      220.624000000000      75.581100000000      20.600600000000
        45    2   2.400000      223.244000000000      75.855200000000      29.135700000000
        46    3  -1.200000      221.665000000000      75.909400000000      29.164900000000
        47    3  -1.200000      223.838000000000      77.131600000000      29.878300000000
        48    3  -1.200000      223.848000000000      74.498900000000      29.622400000000
        49    3  -1.200000      223.893000000000      75.938300000000      27.629500000000
        50    2   2.400000      222.678000000000      72.840200000000      27.181000000000
        51    3  -1.200000      222.048000000000      71.563100000000      26.430600000000
        52    3  -1.200000      221.983000000000      74.143300000000      26.586700000000
        53    3  -1.200000      221.992000000000      72.733700000000      28.683300000000
        54    1   1.200000      222.977000000000      74.140800000000      22.915800000000
        55    1   1.200000      223.404000000000      72.816200000000      30.456800000000
        56    2   2.400000      220.999000000000      72.599100000000      21.888700000000
        57    3  -1.200000      219.444000000000      72.544800000000      21.970300000000
        58    3  -1.200000      221.720000000000      71.352300000000      21.197000000000
        59    3  -1.200000      221.632000000000      73.912200000000      21.244500000000
        60    3  -1.200000      221.667000000000      72.601400000000      23.389000000000
        61    1   1.200000      222.880000000000      77.141200000000      22.897400000000
        62    1   1.200000      222.824000000000      75.864300000000      25.827900000000
        63    2   2.400000      223.107000000000      81.586200000000      18.683000000000
        64    3  -1.200000      221.551000000000      81.550200000000      18.611600000000
        65    3  -1.200000      223.760000000000      82.880200000000      19.352200000000
        66    3  -1.200000      223.818000000000      80.323000000000      19.345500000000
        67    3  -1.200000      223.769000000000      81.607200000000      17.180500000000
        68    2   2.400000      222.516000000000      78.574200000000      16.657100000000
        69    3  -1.200000      221.870000000000      77.278800000000      15.989600000000
        70    3  -1.200000      221.801000000000      79.835200000000      15.990100000000
        71    3  -1.200000      221.855000000000      78.558200000000      18.159400000000
        72    1   1.200000      222.907000000000      78.590300000000      19.995700000000
        73    1   1.200000      222.711000000000      81.570500000000      15.343400000000
        74    1   1.200000      220.466000000000      81.573300000000      20.588000000000
        75    2   2.400000      223.093000000000      81.865300000000      29.135300000000
        76    3  -1.200000      221.516000000000      81.929600000000      29.117900000000
        77    3  -1.200000      223.705000000000      83.121800000000      29.911300000000
        78    3  -1.200000      223.693000000000      80.521700000000      29.663700000000
        79    3  -1.200000      223.745000000000      81.939000000000      27.633100000000
        80    2   2.400000      222.466000000000      78.882900000000      27.159400000000
        81    3  -1.200000      221.823000000000      77.595700000000      26.421700000000
        82    3  -1.200000      221.781000000000      80.180700000000      26.533400000000
        83    3  -1.200000      221.753000000000      78.798600000000      28.624900000000
        84    1   1.200000      222.801000000000      80.143100000000      22.899100000000
        85    1   1.200000      223.496000000000      78.925000000000      30.724500000000
        86    2   2.400000      220.804000000000      78.591700000000      21.893800000000
        87    3  -1.200000      219.248000000000      78.537300000000      21.984000000000
        88    3  -1.200000      221.520000000000      77.332900000000      21.220800000000
        89    3  -1.200000      221.449000000000      79.889900000000      21.230100000000
        90    3  -1.200000      221.470000000000      78.612700000000      23.393500000000
        91    1   1.200000      222.736000000000      83.140900000000      22.873500000000
        92    1   1.200000      222.691000000000      81.854600000000      25.794200000000
        93    2   2.400000      222.995000000000      87.572300000000      18.670100000000
        94    3  -1.200000      221.438000000000      87.535200000000      18.598500000000
        95    3  -1.200000      223.657000000000      88.859300000000      19.344800000000
        96    3  -1.200000      223.700000000000      86.302800000000      19.325300000000
        97    3  -1.200000      223.657000000000      87.598100000000      17.168300000000
        98    2   2.400000      222.381000000000      84.554700000000      16.649100000000
        99    3  -1.200000      223.936000000000      84.601900000000      16.719400000000
       100    3  -1.200000      221.724000000000      83.264800000000      15.980000000000
       101    3  -1.200000      221.671000000000      85.822000000000      15.987200000000
       102    3  -1.200000      221.718000000000      84.536300000000      18.150500000000
       103    1   1.200000      222.773000000000      84.581900000000      19.979900000000
       104    1   1.200000      222.595000000000      87.550300000000      15.337700000000
       105    3  -1.200000      223.988000000000      88.905800000000      14.107900000000
       106    1   1.200000      220.356000000000      87.567000000000      20.569300000000
       107    2   2.400000      223.014000000000      87.822700000000      29.137000000000
       108    3  -1.200000      221.438000000000      87.887000000000      29.096800000000
       109    3  -1.200000      223.635000000000      89.070000000000      29.926900000000
       110    3  -1.200000      223.614000000000      86.477300000000      29.670000000000
       111    3  -1.200000      223.665000000000      87.903300000000      27.633400000000
       112    2   2.400000      222.350000000000      84.865400000000      27.116100000000
       113    3  -1.200000      223.906000000000      84.846700000000      27.140200000000
       114    3  -1.200000      221.699000000000      83.588000000000      26.363400000000
       115    3  -1.200000      221.670000000000      86.169900000000      26.498800000000
       116    3  -1.200000      221.625000000000      84.767300000000      28.568100000000
       117    1   1.200000      222.686000000000      86.136400000000      22.873300000000
       118    1   1.200000      223.546000000000      84.911700000000      30.794200000000
       119    2   2.400000      220.668000000000      84.586800000000      21.868200000000
       120    3  -1.200000      219.113000000000      84.529000000000      21.964600000000
       121    3  -1.200000      221.378000000000      83.320000000000      21.203700000000
       122    3  -1.200000      221.326000000000      85.875400000000      21.198600000000
       123    3  -1.200000      221.337000000000      84.617200000000      23.366600000000
       124    1   1.200000      222.644000000000      89.128000000000      22.860200000000
       125    1   1.200000      222.614000000000      87.821400000000      25.773500000000
       126    2   2.400000      222.916000000000      93.552300000000      18.665500000000
       127    3  -1.200000      221.359000000000      93.513400000000      18.593800000000
       128    3  -1.200000      223.585000000000      94.833700000000      19.344700000000
       129    3  -1.200000      223.618000000000      92.278300000000      19.314900000000
       130    3  -1.200000      223.578000000000      93.582400000000      17.163600000000
       131    2   2.400000      222.285000000000      90.536000000000      16.641800000000
       132    3  -1.200000      223.841000000000      90.585600000000      16.712500000000
       133    3  -1.200000      221.621000000000      89.251900000000      15.969100000000
       134    3  -1.200000      221.580000000000      91.807800000000      15.985100000000
       135    3  -1.200000      221.622000000000      90.513000000000      18.143100000000
       136    1   1.200000      222.681000000000      90.566200000000      19.970300000000
       137    1   1.200000      222.515000000000      93.528300000000      15.333900000000
       138    3  -1.200000      223.913000000000      94.890000000000      14.102500000000
       139    3  -1.200000      223.947000000000      92.334000000000      14.129500000000
       140    1   1.200000      220.279000000000      93.547400000000      20.564300000000
       141    2   2.400000      222.970000000000      93.772900000000      29.137200000000
       142    3  -1.200000      221.395000000000      93.833300000000      29.086800000000
       143    3  -1.200000      223.596000000000      95.016000000000      29.933400000000
       144    3  -1.200000      223.569000000000      92.424300000000      29.667100000000
       145    3  -1.200000      223.619000000000      93.859700000000      27.632200000000
       146    2   2.400000      222.284000000000      90.819200000000      27.101900000000
       147    3  -1.200000      223.840000000000      90.805300000000      27.126800000000
       148    3  -1.200000      221.628000000000      89.549900000000      26.337800000000
       149    3  -1.200000      221.605000000000      92.128500000000      26.492400000000
       150    3  -1.200000      221.558000000000      90.707700000000      28.550100000000
       151    1   1.200000      222.610000000000      92.116300000000      22.863300000000
       152    1   1.200000      223.560000000000      90.866100000000      30.806000000000
       153    2   2.400000      220.579000000000      90.571000000000      21.856500000000
       154    3  -1.200000      219.024000000000      90.508600000000      21.956100000000
       155    3  -1.200000      221.283000000000      89.300900000000      21.192600000000
       156    3  -1.200000      221.244000000000      91.853500000000      21.183800000000
       157    3  -1.200000      221.251000000000      90.603200000000      23.353500000000
       158    1   1.200000      222.580000000000      95.102200000000      22.860800000000
       159    1   1.200000      222.561000000000      93.773400000000      25.768600000000
       160    3  -1.200000      223.950000000000      94.919800000000      24.540100000000
       161    3  -1.200000      223.978000000000      92.372300000000      24.531800000000
       162    3  -1.200000      223.967000000000      93.635300000000      22.366900000000
       163    2   2.400000      222.858000000000      99.523700000000      18.666000000000
       164    3  -1.200000      221.302000000000      99.482200000000      18.594400000000
       165    3  -1.200000      223.531000000000     100.802000000000      19.347300000000
       166    3  -1.200000      223.559000000000      98.247400000000      19.312200000000
       167    3  -1.200000      223.520000000000      99.556600000000      17.163800000000
       168    2   2.400000      222.218000000000      96.510600000000      16.639100000000
       169    3  -1.200000      223.773000000000      96.561900000000      16.709800000000
       170    3  -1.200000      221.547000000000      95.231100000000      15.962700000000
       171    3  -1.200000      221.514000000000      97.784800000000      15.985600000000
       172    3  -1.200000      221.555000000000      96.483500000000      18.140700000000
       173    1   1.200000      222.614000000000      96.542200000000      19.969500000000
       174    1   1.200000      222.457000000000      99.498300000000      15.332500000000
       175    3  -1.200000      223.858000000000     100.864000000000      14.099600000000
       176    3  -1.200000      223.886000000000      98.309800000000      14.130200000000
       177    1   1.200000      220.220000000000      99.513400000000      20.566900000000
       178    2   2.400000      222.942000000000      99.723100000000      29.140100000000
       179    3  -1.200000      221.368000000000      99.780300000000      29.083500000000
       180    3  -1.200000      223.573000000000     100.966000000000      29.937200000000
       181    3  -1.200000      223.542000000000      98.372900000000      29.667200000000
       182    3  -1.200000      223.587000000000      99.813000000000      27.632700000000
       183    2   2.400000      222.240000000000      96.765700000000      27.098500000000
       184    3  -1.200000      223.796000000000      96.758900000000      27.122200000000
       185    3  -1.200000      221.581000000000      95.501100000000      26.330200000000
       186    3  -1.200000      221.561000000000      98.077200000000      26.494000000000
       187    3  -1.200000      221.517000000000      96.646400000000      28.546300000000
       188    1   1.200000      222.556000000000      98.084700000000      22.863000000000
       189    1   1.200000      223.565000000000      96.816000000000      30.808900000000
       190    2   2.400000      220.516000000000      96.541100000000      21.857300000000
       191    3  -1.200000      218.961000000000      96.475200000000      21.959200000000
       192    3  -1.200000      221.217000000000      95.269200000000      21.193800000000
       193    3  -1.200000      221.184000000000      97.819000000000      21.180000000000
       194    3  -1.200000      221.191000000000      96.575400000000      23.352900000000
       195    1   1.200000      222.532000000000     101.066000000000      22.865600000000
       196    1   1.200000      222.523000000000      99.720300000000      25.770100000000
       197    3  -1.200000      223.906000000000     100.889000000000      24.537900000000
       198    3  -1.200000      223.929000000000      98.343900000000      24.537100000000
       199    3  -1.200000      223.918000000000      99.599400000000      22.367800000000
       200    2   2.400000      222.811000000000     105.487000000000      18.667700000000
       201    3  -1.200000      221.255000000000     105.442000000000      18.596400000000
       202    3  -1.200000      223.487000000000     106.762000000000      19.349900000000
       203    3  -1.200000      223.513000000000     104.210000000000      19.312600000000
       204    3  -1.200000      223.473000000000     105.521000000000      17.165200000000
       205    2   2.400000      222.166000000000     102.476000000000      16.638800000000
       206    3  -1.200000      223.722000000000     102.529000000000      16.709500000000
       207    3  -1.200000      221.493000000000     101.200000000000      15.959800000000
       208    3  -1.200000      221.463000000000     103.751000000000      15.986800000000
       209    3  -1.200000      221.504000000000     102.446000000000      18.140600000000
       210    1   1.200000      222.563000000000     102.509000000000      19.972100000000
       211    1   1.200000      222.412000000000     105.460000000000      15.332100000000
       212    3  -1.200000      223.814000000000     106.828000000000      14.098400000000
       213    3  -1.200000      223.839000000000     104.276000000000      14.131100000000
       214    1   1.200000      220.173000000000     105.469000000000      20.570400000000
       215    2   2.400000      222.917000000000     105.673000000000      29.142400000000
       216    3  -1.200000      221.343000000000     105.727000000000      29.079800000000
       217    3  -1.200000      223.550000000000     106.916000000000      29.940800000000
       218    3  -1.200000      223.520000000000     104.323000000000      29.668400000000
       219    3  -1.200000      223.560000000000     105.765000000000      27.633900000000
       220    2   2.400000      222.207000000000     102.711000000000      27.099700000000
       221    3  -1.200000      223.763000000000     102.712000000000      27.122100000000
       222    3  -1.200000      221.547000000000     101.449000000000      26.329200000000
       223    3  -1.200000      221.525000000000     104.023000000000      26.497700000000
       224    3  -1.200000      221.487000000000     102.587000000000      28.548000000000
       225    1   1.200000      222.513000000000     104.044000000000      22.865500000000
       226    1   1.200000      223.570000000000     102.767000000000      30.811300000000
       227    2   2.400000      220.468000000000     102.500000000000      21.861700000000
       228    3  -1.200000      218.913000000000     102.432000000000      21.965300000000
       229    3  -1.200000      221.167000000000     101.227000000000      21.199300000000
       230    3  -1.200000      221.138000000000     103.775000000000      21.179300000000
       231    3  -1.200000      221.145000000000     102.538000000000      23.355700000000
       232    1   1.200000      222.491000000000     107.023000000000      22.870600000000
       233    1   1.200000      222.489000000000     105.666000000000      25.772800000000
       234    3  -1.200000      223.869000000000     106.849000000000      24.538300000000
       235    3  -1.200000      223.889000000000     104.307000000000      24.542400000000
       236    3  -1.200000      223.877000000000     105.557000000000      22.370200000000
       237    2   2.400000      222.768000000000     111.442000000000      18.669000000000
       238    3  -1.200000      221.212000000000     111.395000000000      18.597400000000
       239    3  -1.200000      223.444000000000     112.717000000000      19.351200000000
       240    3  -1.200000      223.471000000000     110.166000000000      19.314300000000
       241    3  -1.200000      223.430000000000     111.476000000000      17.166600000000
       242    2   2.400000      222.123000000000     108.434000000000      16.638800000000
       243    3  -1.200000      223.679000000000     108.489000000000      16.709900000000
       244    3  -1.200000      221.448000000000     107.159000000000      15.958300000000
       245    3  -1.200000      221.419000000000     109.708000000000      15.986700000000
       246    3  -1.200000      221.461000000000     108.402000000000      18.140600000000
       247    1   1.200000      222.518000000000     108.468000000000      19.974900000000
       248    1   1.200000      222.372000000000     111.414000000000      15.331700000000
       249    3  -1.200000      223.773000000000     112.782000000000      14.098300000000
       250    3  -1.200000      223.798000000000     110.232000000000      14.131300000000
       251    1   1.200000      220.127000000000     111.418000000000      20.572700000000
       252    2   2.400000      222.892000000000     111.621000000000      29.145800000000
       253    3  -1.200000      221.319000000000     111.671000000000      29.077600000000
       254    3  -1.200000      223.530000000000     112.864000000000      29.942700000000
       255    3  -1.200000      223.497000000000     110.272000000000      29.671800000000
       256    3  -1.200000      223.533000000000     111.712000000000      27.635600000000
       257    2   2.400000      222.175000000000     108.655000000000      27.101800000000
       258    3  -1.200000      223.731000000000     108.662000000000      27.123500000000
       259    3  -1.200000      221.513000000000     107.394000000000      26.329600000000
       260    3  -1.200000      221.490000000000     109.966000000000      26.501000000000
       261    3  -1.200000      221.456000000000     108.527000000000      28.550400000000
       262    1   1.200000      222.472000000000     109.998000000000      22.868300000000
       263    1   1.200000      223.572000000000     108.718000000000      30.816800000000
       264    2   2.400000      220.425000000000     108.452000000000      21.865400000000
       265    3  -1.200000      218.871000000000     108.382000000000      21.969400000000
       266    3  -1.200000      221.125000000000     107.178000000000      21.203900000000
       267    3  -1.200000      221.095000000000     109.725000000000      21.179400000000
       268    3  -1.200000      221.104000000000     108.492000000000      23.358500000000
       269    1   1.200000      222.449000000000     112.973000000000      22.875600000000
       270    1   1.200000      222.455000000000     111.608000000000      25.776100000000
       271    3  -1.200000      223.831000000000     112.803000000000      24.539600000000
       272    3  -1.200000      223.852000000000     110.262000000000      24.547000000000
       273    3  -1.200000      223.837000000000     111.509000000000      22.372900000000
       274    2   2.400000      222.715000000000     117.390000000000      18.669300000000
       275    3  -1.200000      221.160000000000     117.342000000000      18.597500000000
       276    3  -1.200000      223.389000000000     118.668000000000      19.349600000000
       277    3  -1.200000      223.423000000000     116.117000000000      19.317000000000
       278    3  -1.200000      223.378000000000     117.423000000000      17.167000000000
       279    2   2.400000      222.078000000000     114.385000000000      16.638600000000
       280    3  -1.200000      223.633000000000     114.440000000000      16.710500000000
       281    3  -1.200000      221.404000000000     113.109000000000      15.957800000000
       282    3  -1.200000      221.372000000000     115.657000000000      15.985000000000
       283    3  -1.200000      221.416000000000     114.353000000000      18.140200000000
       284    1   1.200000      222.472000000000     114.419000000000      19.977400000000
       285    1   1.200000      222.324000000000     117.363000000000      15.330800000000
       286    3  -1.200000      223.721000000000     118.727000000000      14.099400000000
       287    3  -1.200000      223.752000000000     116.179000000000      14.129700000000
       288    1   1.200000      220.074000000000     117.359000000000      20.572200000000
       289    2   2.400000      222.863000000000     117.562000000000      29.147600000000
       290    3  -1.200000      221.292000000000     117.610000000000      29.072300000000
       291    3  -1.200000      223.506000000000     118.810000000000      29.941000000000
       292    3  -1.200000      223.474000000000     116.216000000000      29.675100000000
       293    3  -1.200000      223.501000000000     117.653000000000      27.635500000000
       294    2   2.400000      222.141000000000     114.595000000000      27.102900000000
       295    3  -1.200000      223.697000000000     114.606000000000      27.124100000000
       296    3  -1.200000      221.478000000000     113.334000000000      26.330500000000
       297    3  -1.200000      221.450000000000     115.902000000000      26.502200000000
       298    3  -1.200000      221.424000000000     114.463000000000      28.552600000000
       299    1   1.200000      222.427000000000     115.945000000000      22.870900000000
       300    1   1.200000      223.577000000000     114.665000000000      30.821400000000
       301    2   2.400000      220.381000000000     114.397000000000      21.868500000000
       302    3  -1.200000      218.826000000000     114.326000000000      21.971400000000
       303    3  -1.200000      221.082000000000     113.124000000000      21.206900000000
       304    3  -1.200000      221.049000000000     115.669000000000      21.179300000000
       305    3  -1.200000      221.060000000000     114.439000000000      23.360400000000
       306    1   1.200000      222.397000000000     118.917000000000      22.879400000000
       307    1   1.200000      222.413000000000     117.546000000000      25.779100000000
       308    3  -1.200000      223.784000000000     118.750000000000      24.541200000000
       309    3  -1.200000      223.808000000000     116.211000000000      24.549700000000
       310    3  -1.200000      223.789000000000     117.457000000000      22.374800000000
       311    3  -1.200000      221.347000000000     119.052000000000      15.959000000000
       312    3  -1.200000      221.435000000000     119.268000000000      26.332700000000
       313    3  -1.200000      221.027000000000     119.066000000000      21.206900000000
       314    1   1.200000      220.930000000000      65.036900000000      17.640400000000
       315    1   1.200000      221.029000000000      65.126000000000      27.967800000000
       316    1   1.200000      220.718000000000      71.037000000000      17.668500000000
       317    2   2.400000      218.741000000000      69.468400000000      18.688200000000
       318    3  -1.200000      217.185000000000      69.432700000000      18.617800000000
       319    3  -1.200000      219.377000000000      70.768100000000      19.365600000000
       320    3  -1.200000      219.468000000000      68.209600000000      19.338100000000
       321    3  -1.200000      219.401000000000      69.502500000000      17.186300000000
       322    1   1.200000      220.824000000000      68.040000000000      17.662700000000
       323    1   1.200000      220.797000000000      66.551000000000      14.769400000000
       324    2   2.400000      218.176000000000      66.459900000000      16.655200000000
       325    3  -1.200000      219.731000000000      66.509800000000      16.727100000000