ITEM: TIMESTEP
0
ITEM: NUMBER OF ATOMS
100
ITEM: BOX BOUNDS pp pp pp
0	17.5532
0	117.998
0	159.277
ITEM: ATOMS id type element xu yu zu Steinhardt[1] Steinhardt[2]
1 1 Ni 0 0 0 0.4502561291707018 1.7436756572367353
2 1 Ni 0 0 0 0.4794707141042079 1.7826618154393465
3 1 Ni 0 0 0 0.6069513934959544 1.951979368473138
4 1 Ni 0 0 0 0.3577318803491517 1.633550897164198
5 1 Ni 0 0 0 0.5381184759442172 1.8532077925812143
6 1 Ni 0 0 0 0.5037460996669337 1.8457744408972143
7 1 Ni 0 0 0 0.4846301839167084 1.7919752099585966
8 1 Ni 0 0 0 0.4345373146546122 1.7304742028652484
9 1 Ni 0 0 0 0.3735934540085346 1.6566822296618227
10 1 Ni 0 0 0 0.5584423992202667 1.9044270588149477
11 1 Ni 0 0 0 0.41883567866910576 1.7147257950523025
12 1 Ni 0 0 0 0.652637151020475 2.0376800420535854
13 1 Ni 0 0 0 0.5749004794331555 1.9137691854631125
14 1 Ni 0 0 0 0.6169715373490734 1.9726452912677905
15 1 Ni 0 0 0 0.4383017482509686 1.751142505509534
16 1 Ni 0 0 0 0.4170468687383535 1.7097611778225343
17 1 Ni 0 0 0 0.4890561661563426 1.7872680702166945
18 1 Ni 0 0 0 0.5767418358452371 1.9221524921572644
19 1 Ni 0 0 0 0.505760009161546 1.8159862412456278
20 1 Ni 0 0 0 0.5007170795982059 1.8194073441720278
21 1 Ni 0 0 0 0.5314794863754441 1.8816066261373607
22 1 Ni 0 0 0 0.5570409791823803 1.9197075272481188
23 1 Ni 0 0 0 0.5334228013137937 1.8666955858742786
24 1 Ni 0 0 0 0.4685217761054912 1.7928347828908278
25 1 Ni 0 0 0 0.5582309802435537 1.9017452167872118
26 1 Ni 0 0 0 0.38721321971090755 1.6692897912913391
27 1 Ni 0 0 0 0.6911552340099292 2.0863411763861386
28 1 Ni 0 0 0 0.4934047635406311 1.8085509533062063
29 1 Ni 0 0 0 0.4277032926166647 1.7142643961060269
30 1 Ni 0 0 0 0.39058864553506606 1.677907091181611
31 1 Ni 0 0 0 0.6277357721038993 2.014374299054822
32 1 Ni 0 0 0 0.5345492405054505 1.8306568821372164
33 1 Ni 0 0 0 0.532206933893192 1.8812454353312171
34 1 Ni 0 0 0 0.5730394735376734 1.9249208107956628
35 1 Ni 0 0 0 0.46782595026606105 1.7669889499320017
36 1 Ni 0 0 0 0.49399819305138964 1.8152256675070773
37 1 Ni 0 0 0 0.40527893208875826 1.682350183988905
38 1 Ni 0 0 0 0.4819357266050119 1.7836827048864254
39 1 Ni 0 0 0 0.3384769698289742 1.627329850076591
40 1 Ni 0 0 0 0.374962770448785 1.64054292304915
41 1 Ni 0 0 0 0.505340050260676 1.8152863989101409
42 1 Ni 0 0 0 0.4700235672687173 1.7657856759585486
43 1 Ni 0 0 0 0.47604713208437477 1.7669560419309192
44 1 Ni 0 0 0 0.45351263087535515 1.7633272410486927
45 1 Ni 0 0 0 0.5095518719380251 1.8452360151546143
46 1 Ni 0 0 0 0.461046498541129 1.7912217305517921
47 1 Ni 0 0 0 0.4298447979553498 1.7111408181377312
48 1 Ni 0 0 0 0.5010074609831818 1.8045842704681208
49 1 Ni 0 0 0 0.5711369555948028 1.925026882423647
50 1 Ni 0 0 0 0.5229784832704897 1.8663864012613205
51 1 Ni 0 0 0 0.4048356550761757 1.6978967593193826
52 1 Ni 0 0 0 0.4294929072906127 1.7266235667570526
53 1 Ni 0 0 0 0.40947984208697796 1.6754723255793122
54 1 Ni 0 0 0 0.5506002726274486 1.8863646356093313
55 1 Ni 0 0 0 0.4395869900227091 1.7577329137093531
56 1 Ni 0 0 0 0.4145473990771377 1.6878581813073656
57 1 Ni 0 0 0 0.4265330650820314 1.7080714944086912
58 1 Ni 0 0 0 0.39627093064873575 1.692004904165083
59 1 Ni 0 0 0 0.4993692580681011 1.83007346663631
60 1 Ni 0 0 0 0.4411447484134977 1.7053025240878952
61 1 Ni 0 0 0 0.48620210935115804 1.8060320858408334
62 1 Ni 0 0 0 0.5368463281292652 1.8801987968517553
63 1 Ni 0 0 0 0.40815695400081925 1.6778855395895866
64 1 Ni 0 0 0 0.38062835317212174 1.656279900025328
65 1 Ni 0 0 0 0.42005570441264656 1.722826710279119
66 1 Ni 0 0 0 0.5987265730483289 1.9096190724715758
67 1 Ni 0 0 0 0.435336433284827 1.7168489555213309
68 1 Ni 0 0 0 0.3959704793839977 1.6905143862449128
69 1 Ni 0 0 0 0.5719960344957438 1.9273980787153715
70 1 Ni 0 0 0 0.47893028898479956 1.7842901136978129
71 1 Ni 0 0 0 0.5967170080058738 1.9465612891105621
72 1 Ni 0 0 0 0.5022436950875804 1.8321873943155065
73 1 Ni 0 0 0 0.5134008099303725 1.8306293848253656
74 1 Ni 0 0 0 0.38625748568139606 1.6641614532591162
75 1 Ni 0 0 0 0.3780281562699266 1.6405052452588809
76 1 Ni 0 0 0 0.3696019414702989 1.6360487543378661
77 1 Ni 0 0 0 0.49089749990109177 1.80378381371174
78 1 Ni 0 0 0 0.5218200015964894 1.8480189414804358
79 1 Ni 0 0 0 0.4460313323483538 1.7221511251203607
80 1 Ni 0 0 0 0.5854638648425909 1.959388877679953
81 1 Ni 0 0 0 0.4214148661221572 1.7170408480915957
82 1 Ni 0 0 0 0.6241533786476966 1.9924914151517445
83 1 Ni 0 0 0 0.5012532056473974 1.8029330573448445
84 1 Ni 0 0 0 0.6256666711091199 1.9817168091259736
85 1 Ni 0 0 0 0.44033012750192124 1.7257374921571078
86 1 Ni 0 0 0 0.5590064326630249 1.887641307661629
87 1 Ni 0 0 0 0.6108915591373579 1.961345522492334
88 1 Ni 0 0 0 0.6563633575915455 2.052018768403202
89 1 Ni 0 0 0 0.5844118751734025 1.9306881032486842
90 1 Ni 0 0 0 0.5586011579937706 1.9009193379895881
91 1 Ni 0 0 0 0.45854390449330573 1.7675630045144435
92 1 Ni 0 0 0 0.48967852934302253 1.8190904547424434
93 1 Ni 0 0 0 0.3650933193183026 1.620436889450605
94 1 Ni 0 0 0 0.5194892553381503 1.8516864716615302
95 1 Ni 0 0 0 0.398719359612965 1.6887785195596585
96 1 Ni 0 0 0 0.5177469216804136 1.8382668290862119
97 1 Ni 0 0 0 0.40221092735505626 1.681120099450388
98 1 Ni 0 0 0 0.5193229954477782 1.8657019786404407
99 1 Ni 0 0 0 0.442394177146738 1.7297305854171372
100 1 Ni 0 0 0 0.5752216049778889 1.9074975191148638
ITEM: TIMESTEP
10
ITEM: NUMBER OF ATOMS
100
ITEM: BOX BOUNDS pp pp pp
0	17.5532
0	117.998
0	159.277
ITEM: ATOMS id type element xu yu zu Steinhardt[1] Steinhardt[2]
1 1 Ni 0 0 0 0.4626411835535539 1.7642419587264127
2 1 Ni 0 0 0 0.3597453417930474 1.6022017503003965
3 1 Ni 0 0 0 0.5445850079218709 1.8774911097014781
4 1 Ni 0 0 0 0.5638068176962064 1.9307714489855972
5 1 Ni 0 0 0 0.4838345291062801 1.8145864194111352
6 1 Ni 0 0 0 0.5265099952424278 1.8551827733145099
7 1 Ni 0 0 0 0.46641392192811504 1.771463961068223
8 1 Ni 0 0 0 0.5048562283792676 1.832117469764427
9 1 Ni 0 0 0 0.4884906153553148 1.81193554128508
10 1 Ni 0 0 0 0.6009375769812801 1.9426015600559865
11 1 Ni 0 0 0 0.5040040345608273 1.8380272206228154
12 1 Ni 0 0 0 0.3720119861472315 1.6582451316624858
13 1 Ni 0 0 0 0.4244867780240529 1.7315920017998792
14 1 Ni 0 0 0 0.5364789630422993 1.8193883655986849
15 1 Ni 0 0 0 0.5301585542379617 1.8620151638305944
16 1 Ni 0 0 0 0.31284560332036304 1.5580850789785006
17 1 Ni 0 0 0 0.4413133820562875 1.7375932150255953
18 1 Ni 0 0 0 0.4595175674127607 1.7611908081187027
19 1 Ni 0 0 0 0.6008742767718281 1.941419295273001
20 1 Ni 0 0 0 0.4529477343793906 1.7800637733587117
21 1 Ni 0 0 0 0.5251405242948101 1.8587050815091777
22 1 Ni 0 0 0 0.5626511914881995 1.9109219929124743
23 1 Ni 0 0 0 0.37015915474061384 1.6509479185456293
24 1 Ni 0 0 0 0.5046490109846458 1.8094578057160609
25 1 Ni 0 0 0 0.4930134582027073 1.8122270247608765
26 1 Ni 0 0 0 0.5875709545127862 1.9558485690088094
27 1 Ni 0 0 0 0.41464572835430646 1.7069853284779932
28 1 Ni 0 0 0 0.511549549271883 1.8387932910394393
29 1 Ni 0 0 0 0.4748774511478115 1.7873503370641977
30 1 Ni 0 0 0 0.3019868390521397 1.5494142411270808
31 1 Ni 0 0 0 0.5290409286872375 1.8393048246131172
32 1 Ni 0 0 0 0.5732917103211895 1.9165700970521946
33 1 Ni 0 0 0 0.5131846059512847 1.8440604623765942
34 1 Ni 0 0 0 0.4573947411286026 1.7654702301834113
35 1 Ni 0 0 0 0.45318410958555505 1.7692132562881813
36 1 Ni 0 0 0 0.5236426644795207 1.8551463462030402
37 1 Ni 0 0 0 0.4771513241054154 1.7913148914500114
38 1 Ni 0 0 0 0.49124891991402087 1.785636619027736
39 1 Ni 0 0 0 0.5243117312646287 1.8777303615404755
40 1 Ni 0 0 0 0.5423927758551098 1.885293958935211
41 1 Ni 0 0 0 0.561994415235209 1.9132475022749464
42 1 Ni 0 0 0 0.4709137192071259 1.7714649779990883
43 1 Ni 0 0 0 0.4469186088040387 1.7311208756697816
44 1 Ni 0 0 0 0.6573191849567136 2.01797177183212
45 1 Ni 0 0 0 0.5005543567010132 1.8292818574937653
46 1 Ni 0 0 0 0.5061145760630562 1.8183586660130677
47 1 Ni 0 0 0 0.47661659179468924 1.7795529455787078
48 1 Ni 0 0 0 0.44462145256443986 1.7614335204071525
49 1 Ni 0 0 0 0.5441203382058052 1.8793677752222522
50 1 Ni 0 0 0 0.4103973104149889 1.686225512174587
51 1 Ni 0 0 0 0.5376403310588026 1.8763986284197356
52 1 Ni 0 0 0 0.5727198450876412 1.9039505711426836
53 1 Ni 0 0 0 0.7433538384542464 2.1308066861770785
54 1 Ni 0 0 0 0.3795704127381483 1.6276276091711863
55 1 Ni 0 0 0 0.592560762356229 1.9322876476615916
56 1 Ni 0 0 0 0.5000572774773826 1.7956173878943664
57 1 Ni 0 0 0 0.5800031359302055 1.918246597912885
58 1 Ni 0 0 0 0.5421211512509918 1.8614877262975131
59 1 Ni 0 0 0 0.4567936122307147 1.7624136410617621
60 1 Ni 0 0 0 0.4388581556291183 1.7146946112436765
61 1 Ni 0 0 0 0.4842512890057228 1.8136720161831608
62 1 Ni 0 0 0 0.5065389587093748 1.8292629064479586
63 1 Ni 0 0 0 0.5568013832469326 1.8973127218831602
64 1 Ni 0 0 0 0.47486001098749564 1.8007120977908644
65 1 Ni 0 0 0 0.3484675814233536 1.6339023810033364
66 1 Ni 0 0 0 0.42388525452411074 1.7123289873023542
67 1 Ni 0 0 0 0.6035054675425595 1.9632358007375945
68 1 Ni 0 0 0 0.5344759790981995 1.863754811408811
69 1 Ni 0 0 0 0.4390826056924114 1.7333306628607883
70 1 Ni 0 0 0 0.4315399435444035 1.7198002046846348
71 1 Ni 0 0 0 0.5921549092597165 1.9486743853632231
72 1 Ni 0 0 0 0.4712185992872159 1.7714251870415028
73 1 Ni 0 0 0 0.3848157900418946 1.6693345069924388
74 1 Ni 0 0 0 0.46260602873464207 1.7501195265615521
75 1 Ni 0 0 0 0.3727400419930048 1.6187446607443774
76 1 Ni 0 0 0 0.37115764674445006 1.644555944807274
77 1 Ni 0 0 0 0.5105431187575785 1.8163224104488152
78 1 Ni 0 0 0 0.5088073005926751 1.826143042373882
79 1 Ni 0 0 0 0.5144655384950831 1.8258776379637136
80 1 Ni 0 0 0 0.5199636347970629 1.856943848054093
81 1 Ni 0 0 0 0.3844881538697464 1.6447646616447544
82 1 Ni 0 0 0 0.5826244256462215 1.9251525066423094
83 1 Ni 0 0 0 0.512473750002317 1.8549772961589281
84 1 Ni 0 0 0 0.6160275758764807 2.00073789036222
85 1 Ni 0 0 0 0.6676531648619679 2.0631357403655524
86 1 Ni 0 0 0 0.43212048982327905 1.7140790245628224
87 1 Ni 0 0 0 0.5397938147424852 1.8572278999996732
88 1 Ni 0 0 0 0.5191874676254461 1.852075407748972
89 1 Ni 0 0 0 0.4507439449549875 1.7672626895705643
90 1 Ni 0 0 0 0.5094483164541048 1.816359256546518
91 1 Ni 0 0 0 0.4092640735342931 1.683533382978386
92 1 Ni 0 0 0 0.48933710951622333 1.806312325111415
93 1 Ni 0 0 0 0.5409867922133562 1.9126983229553793
94 1 Ni 0 0 0 0.3694691916848616 1.6455719528617918
95 1 Ni 0 0 0 0.5356976652498066 1.876112231129281
96 1 Ni 0 0 0 0.5438487924740425 1.8872660041556806
97 1 Ni 0 0 0 0.49821961870108705 1.794640008862106
98 1 Ni 0 0 0 0.49096941197075317 1.8154549405037945
99 1 Ni 0 0 0 0.44863705356392297 1.7531028899022316
100 1 Ni 0 0 0 0.5238091335621118 1.831856754570625
ITEM: TIMESTEP
20
ITEM: NUMBER OF ATOMS
91
ITEM: BOX BOUNDS pp pp pp
0	17.5532
0	117.998
0	159.277
ITEM: ATOMS id type element xu yu zu Steinhardt[1] Steinhardt[2]
1 1 Ni 0 0 0 0.5042822577682252 1.8176751756028438
2 1 Ni 0 0 0 0.49458728973087496 1.779436824025496
3 1 Ni 0 0 0 0.5077068857894959 1.8152523747193703
4 1 Ni 0 0 0 0.5096516817940241 1.8436791582162133
5 1 Ni 0 0 0 0.5157938205022498 1.8535655748906512
6 1 Ni 0 0 0 0.3754651489540559 1.6413391391708565
7 1 Ni 0 0 0 0.43077223628240136 1.717786224234938
8 1 Ni 0 0 0 0.5073143514086219 1.85175822266957
9 1 Ni 0 0 0 0.5498406455541494 1.8866111385870639
10 1 Ni 0 0 0 0.4133054696849102 1.6988279605449128
11 1 Ni 0 0 0 0.5361364166129783 1.8788464216641203
12 1 Ni 0 0 0 0.4811609299736121 1.8144381209854161
13 1 Ni 0 0 0 0.35738772070516256 1.6420271472808665
14 1 Ni 0 0 0 0.5294019619176406 1.879500493238675
15 1 Ni 0 0 0 0.48477608951437967 1.788247299508225
16 1 Ni 0 0 0 0.5648317183972043 1.9121813371070786
17 1 Ni 0 0 0 0.45061890846101865 1.7445212480700611
18 1 Ni 0 0 0 0.5308588997556593 1.8300901680260304
19 1 Ni 0 0 0 0.5539774434423149 1.8828813030909328
20 1 Ni 0 0 0 0.425734248419535 1.7291431005773568
21 1 Ni 0 0 0 0.3416467094388425 1.6448434670836685
22 1 Ni 0 0 0 0.5973254948578696 1.9806836225361255
23 1 Ni 0 0 0 0.4803480273207499 1.792816825366768
24 1 Ni 0 0 0 0.5568593741625256 1.8982444909334912
25 1 Ni 0 0 0 0.45339185700914725 1.7576386619423372
26 1 Ni 0 0 0 0.6499970878884578 2.0209858659581856
27 1 Ni 0 0 0 0.3640552882186822 1.631580631682072
28 1 Ni 0 0 0 0.5587075528178405 1.8880439076240008
29 1 Ni 0 0 0 0.532400370874134 1.843982069126882
30 1 Ni 0 0 0 0.4665915407567867 1.7746583438058967
31 1 Ni 0 0 0 0.3107011514134982 1.5405166130953976
32 1 Ni 0 0 0 0.5162256037697507 1.8481341537602751
33 1 Ni 0 0 0 0.4003431897023972 1.6693226068023317
34 1 Ni 0 0 0 0.3689231898556015 1.638972244064146
35 1 Ni 0 0 0 0.30921342081646463 1.5485821822888244
36 1 Ni 0 0 0 0.5167382976028223 1.847179850772558
37 1 Ni 0 0 0 0.3543630678090823 1.6237306125130186
38 1 Ni 0 0 0 0.5860903064366932 1.9377749878450408
39 1 Ni 0 0 0 0.45483129151724205 1.7663504080679475
40 1 Ni 0 0 0 0.5595314078619082 1.90808427942859
41 1 Ni 0 0 0 0.4700162530280376 1.7692926228762564
42 1 Ni 0 0 0 0.5066308123867062 1.8262123430269566
43 1 Ni 0 0 0 0.5015857909528975 1.80710542774596
44 1 Ni 0 0 0 0.5414398464211816 1.8660757792071276
45 1 Ni 0 0 0 0.5869134315738685 1.93110399467752
46 1 Ni 0 0 0 0.5116837663034134 1.843269787077968
47 1 Ni 0 0 0 0.47695991208495875 1.794791534893561
48 1 Ni 0 0 0 0.42458369118200084 1.7242221111749552
49 1 Ni 0 0 0 0.5582677449546175 1.8931654658550499
50 1 Ni 0 0 0 0.5156286502432291 1.8373897096522847
51 1 Ni 0 0 0 0.5103262089234929 1.8153328168387302
52 1 Ni 0 0 0 0.3640953011195123 1.625905177109679
53 1 Ni 0 0 0 0.5867775449655459 1.9216847935111487
54 1 Ni 0 0 0 0.7577836719114179 2.1728482814583545
55 1 Ni 0 0 0 0.674700975504418 2.0488623492383726
56 1 Ni 0 0 0 0.5977966991910384 1.939879593768215
57 1 Ni 0 0 0 0.6383483551518977 2.0226537727030696
58 1 Ni 0 0 0 0.49139279963742505 1.80612678458166
59 1 Ni 0 0 0 0.578365498862252 1.9301195068486543
60 1 Ni 0 0 0 0.5633502515515311 1.8993673564100042
61 1 Ni 0 0 0 0.3760226609462806 1.6419213365951177
62 1 Ni 0 0 0 0.5427698643656987 1.8748563945475172
63 1 Ni 0 0 0 0.41863509471129373 1.7237976275258624
64 1 Ni 0 0 0 0.4623078910149206 1.7764556991506482
65 1 Ni 0 0 0 0.5228928222507797 1.8437649910674851
66 1 Ni 0 0 0 0.497040963793259 1.8087318444386946
67 1 Ni 0 0 0 0.40914842763087267 1.6939877180321123
68 1 Ni 0 0 0 0.43929168721225464 1.7430463896386716
69 1 Ni 0 0 0 0.5679801904316928 1.8998283976085901
70 1 Ni 0 0 0 0.36845361625889583 1.6585334200755513
71 1 Ni 0 0 0 0.46292209659242844 1.7591376362006557
72 1 Ni 0 0 0 0.433067381772118 1.7183333426906482
73 1 Ni 0 0 0 0.48817686392120435 1.8122848118681323
74 1 Ni 0 0 0 0.5826314472176071 1.937955747141641
75 1 Ni 0 0 0 0.5892645733737867 1.9640146371209077
76 1 Ni 0 0 0 0.4379406733310744 1.7167190770929375
77 1 Ni 0 0 0 0.4017423761087037 1.6981797943986088
78 1 Ni 0 0 0 0.4894646899997456 1.776625017765061
79 1 Ni 0 0 0 0.46728005844518944 1.7696659367373475
80 1 Ni 0 0 0 0.3069075658018945 1.5763992093043981
81 1 Ni 0 0 0 0.24908409823864036 1.4787204567441816
82 1 Ni 0 0 0 0.6618872771668615 2.035060125524285
83 1 Ni 0 0 0 0.6076930446215429 1.9655377025206813
84 1 Ni 0 0 0 0.6510408363888056 2.0294574409297637
85 1 Ni 0 0 0 0.409510035612358 1.688953631167489
86 1 Ni 0 0 0 0.42638333268900197 1.7377422097178832
87 1 Ni 0 0 0 0.3988562702473404 1.680962023869416
88 1 Ni 0 0 0 0.33597234385768615 1.6055993599390619
89 1 Ni 0 0 0 0.4407889143071064 1.7458705259150344
90 1 Ni 0 0 0 0.5022252106757386 1.8069703499563292
91 1 Ni 0 0 0 0.6821984900645051 2.0734857627401957
ITEM: TIMESTEP
30
ITEM: NUMBER OF ATOMS
170
ITEM: BOX BOUNDS pp pp pp
0	17.5532
0	117.998
0	159.277
ITEM: ATOMS id type element xu yu zu Steinhardt[1] Steinhardt[2]
1 2 Ag 0 0 0 -2.0149655601919125 -0.6570125524778039
2 2 Ag 0 0 0 -1.740904329318518 -0.36251083169859677
3 2 Ag 0 0 0 -1.9979229557993332 -0.650581408296297
4 2 Ag 0 0 0 -2.0909372076825155 -0.763583880397343
5 2 Ag 0 0 0 -1.6341035385941822 -0.29686314594866897
6 2 Ag 0 0 0 -1.9195689599416335 -0.5639521329941702
7 2 Ag 0 0 0 -2.034132098815789 -0.6887373080907461
8 2 Ag 0 0 0 -2.0490552437032226 -0.7260645666911127
9 2 Ag 0 0 0 -1.7735435798319674 -0.41761856321652807
10 2 Ag 0 0 0 -1.8251938480465464 -0.4339728657087968
11 2 Ag 0 0 0 -1.7911248696857138 -0.5125605045458792
12 2 Ag 0 0 0 -1.9746315881813092 -0.5918843163730801
13 2 Ag 0 0 0 -2.087360099479277 -0.7574399532071315
14 2 Ag 0 0 0 -1.584262305494592 -0.23611878683742515
15 2 Ag 0 0 0 -2.2146176543598917 -0.8133613344410069
16 2 Ag 0 0 0 -1.6276552834305544 -0.2845802896446709
17 2 Ag 0 0 0 -1.6440122296391038 -0.30032547822703376
18 2 Ag 0 0 0 -2.266582063358463 -0.9478151375085491
19 2 Ag 0 0 0 -1.7987545688967836 -0.5026802064354225
20 2 Ag 0 0 0 -1.7957825737928426 -0.5354070405300179
21 2 Ag 0 0 0 -1.3973722001027493 -0.03235956136214502
22 2 Ag 0 0 0 -2.2269493972651127 -0.8284928352379735
23 2 Ag 0 0 0 -2.13756265212349 -0.8149998374916787
24 2 Ag 0 0 0 -1.9038238715428124 -0.5950876983759955
25 2 Ag 0 0 0 -1.8502718302065921 -0.5333693989678362
26 2 Ag 0 0 0 -2.0904125194910477 -0.8410046020554289
27 2 Ag 0 0 0 -2.147627528727083 -0.7499375347207888
28 2 Ag 0 0 0 -1.7055371424489765 -0.42371247553283015
29 2 Ag 0 0 0 -2.0811627770740615 -0.8055354276756825
30 2 Ag 0 0 0 -2.1273480502276563 -0.7598872218039912
31 2 Ag 0 0 0 -2.0588227261683496 -0.6907074477996489
32 2 Ag 0 0 0 -1.8428503912779677 -0.5159070596087494
33 2 Ag 0 0 0 -2.122209010766736 -0.8248858038724752
34 2 Ag 0 0 0 -2.200551043882588 -0.8513409410010906
35 2 Ag 0 0 0 -1.7919195884294137 -0.41203305418508696
36 2 Ag 0 0 0 -1.7243859297814308 -0.38947826276636544
37 2 Ag 0 0 0 -2.081903900587534 -0.70017622760043
38 2 Ag 0 0 0 -1.9520396168496121 -0.5650872297142324
39 2 Ag 0 0 0 -1.6602810764097269 -0.33692749132166083
40 2 Ag 0 0 0 -1.9272962277167174 -0.5791907369892417
41 2 Ag 0 0 0 -2.136044270166098 -0.825338810411815
42 2 Ag 0 0 0 -2.077985204755374 -0.6782318236391491
43 2 Ag 0 0 0 -1.7808483935055912 -0.43304091162457725
44 2 Ag 0 0 0 -1.9487389596860705 -0.6643742508235644
45 2 Ag 0 0 0 -2.2094354459731167 -0.9280575284795464
46 2 Ag 0 0 0 -2.0506522043690527 -0.78862398736815
47 2 Ag 0 0 0 -1.5608297952201395 -0.19985940767873206
48 2 Ag 0 0 0 -1.949358432570633 -0.6433862799704689
49 2 Ag 0 0 0 -1.6528094697122298 -0.2883319154021795
50 2 Ag 0 0 0 -2.0901536436982453 -0.8357025914602141
51 2 Ag 0 0 0 -2.1451402049632504 -0.7460779261845504
52 2 Ag 0 0 0 -1.8317806662754532 -0.5178929826030461
53 2 Ag 0 0 0 -1.9706558026538428 -0.6990765981154339
54 2 Ag 0 0 0 -1.7521577946692322 -0.4088026714285333
55 2 Ag 0 0 0 -1.8694434804298952 -0.6435140780968888
56 2 Ag 0 0 0 -2.0763173244084308 -0.7288559527555003
57 2 Ag 0 0 0 -1.571708866059091 -0.1767201964078874
58 2 Ag 0 0 0 -2.0678668425429905 -0.7260759195660421
59 2 Ag 0 0 0 -2.1607092416395433 -0.8486787810034266
60 2 Ag 0 0 0 -2.0245296770519796 -0.7113136426980112
61 2 Ag 0 0 0 -1.988516226644271 -0.776151949138439
62 2 Ag 0 0 0 -1.9192260735065534 -0.6700523420219294
63 2 Ag 0 0 0 -1.9392178512489493 -0.6458126114541474
64 2 Ag 0 0 0 -1.6794681517049255 -0.24770794720424838
65 2 Ag 0 0 0 -2.0155943501717233 -0.8471938252046841
66 2 Ag 0 0 0 -1.7702784557257494 -0.4757434710570393
67 2 Ag 0 0 0 -1.4773056780991793 -0.07787725855885774
68 2 Ag 0 0 0 -1.853767377262515 -0.521925240185678
69 2 Ag 0 0 0 -1.4974217905963942 -0.2042018620554858
70 2 Ag 0 0 0 -2.294086989716603 -1.118861231967709
71 2 Ag 0 0 0 -1.9067476524383742 -0.5854427170532516
72 2 Ag 0 0 0 -2.0809536561577566 -0.7330261633682458
73 2 Ag 0 0 0 -1.6695636939150207 -0.36004687470879493
74 2 Ag 0 0 0 -2.1353861208113503 -0.7994784025224255
75 2 Ag 0 0 0 -2.0973695972920807 -0.6442604770649176
76 2 Ag 0 0 0 -1.705165550579043 -0.30555621334126887
77 2 Ag 0 0 0 -2.2444083212807535 -1.0263965761037301
78 2 Ag 0 0 0 -1.5830129143038711 -0.16030505382808313
79 2 Ag 0 0 0 -1.858558839534859 -0.6126390605773337
80 2 Ag 0 0 0 -1.8122403601048933 -0.5161345885979639
81 2 Ag 0 0 0 -1.6940595389312163 -0.35845563307355843
82 2 Ag 0 0 0 -1.8465121804122653 -0.5291516782691692
83 2 Ag 0 0 0 -1.945394970048499 -0.6543680799915367
84 2 Ag 0 0 0 -2.334734075942988 -1.1550257118728993
85 2 Ag 0 0 0 -1.8324608141483534 -0.4637827287058354
86 2 Ag 0 0 0 -2.00616916641478 -0.5673746902573779
87 2 Ag 0 0 0 -1.9774490947689767 -0.6407961659685449
88 2 Ag 0 0 0 -2.178934298285142 -0.9090904234490149
89 2 Ag 0 0 0 -1.493326849890853 -0.15768413355580763
90 2 Ag 0 0 0 -2.3855902853124342 -1.111273658014045
91 2 Ag 0 0 0 -1.8699861522502041 -0.5344088313094653
92 2 Ag 0 0 0 -1.9720468514905882 -0.7117607459576202
93 2 Ag 0 0 0 -2.09636127316686 -0.8068677611919908
94 2 Ag 0 0 0 -1.9597276729045694 -0.7775047280137407
95 2 Ag 0 0 0 -1.8425358717656326 -0.4943230823855105
96 2 Ag 0 0 0 -2.095983845465489 -0.7899002886171219
97 2 Ag 0 0 0 -1.833656140643077 -0.42949485026776935
98 2 Ag 0 0 0 -2.1783908098434477 -0.9226547862868844
99 2 Ag 0 0 0 -1.9542472562870392 -0.6849040265214336
100 2 Ag 0 0 0 -2.174290351548073 -0.976987075383187
101 2 Ag 0 0 0 -2.0954354656102208 -0.8574857970318082
102 2 Ag 0 0 0 -1.8182812885076418 -0.5114630568685197
103 2 Ag 0 0 0 -2.18283997564523 -0.8152009175418452
104 2 Ag 0 0 0 -1.9311879150292255 -0.5605364449687475
105 2 Ag 0 0 0 -1.597669615506904 -0.25988636297259343
106 2 Ag 0 0 0 -2.4649286132511508 -1.251456864845145
107 2 Ag 0 0 0 -1.9482564305670054 -0.624370021375955
108 2 Ag 0 0 0 -2.1134976928135787 -0.8277204885383964
109 2 Ag 0 0 0 -2.09820580416954 -0.7375857014171476
110 2 Ag 0 0 0 -2.4322676065522266 -1.0676099725535462
111 2 Ag 0 0 0 -1.5366819377086411 -0.14043985237560952
112 2 Ag 0 0 0 -1.828823046782172 -0.46990449778722165
113 2 Ag 0 0 0 -2.053130522626079 -0.6549362350081213
114 2 Ag 0 0 0 -2.2145227405976367 -0.9070875943795391
115 2 Ag 0 0 0 -1.7244964916421996 -0.3351227830019095
116 2 Ag 0 0 0 -1.7059505614833512 -0.39945372163096926
117 2 Ag 0 0 0 -2.0170284688848934 -0.7180353013606127
118 2 Ag 0 0 0 -1.8142733184772755 -0.41422625977037697
119 2 Ag 0 0 0 -2.214541226351595 -0.8363472192348318
120 2 Ag 0 0 0 -1.8060807976663644 -0.47578097143002807
121 2 Ag 0 0 0 -1.8390029171357156 -0.46540959042051877
122 2 Ag 0 0 0 -1.9106020572613351 -0.6722610349962488
123 2 Ag 0 0 0 -2.2663311257152294 -0.9173840026592737
124 2 Ag 0 0 0 -1.8402343019220284 -0.5450372298954187
125 2 Ag 0 0 0 -1.6321338153007687 -0.23097207635069722
126 2 Ag 0 0 0 -1.7746149367138802 -0.4352390368169823
127 2 Ag 0 0 0 -2.144723107269134 -0.8091572889179952
128 2 Ag 0 0 0 -1.6657541341282225 -0.2942564755892325
129 2 Ag 0 0 0 -2.1905539866913752 -0.8567689615145732
130 2 Ag 0 0 0 -1.9499160125019637 -0.5793811611400608
131 2 Ag 0 0 0 -1.8082805390645966 -0.46393228080500426
132 2 Ag 0 0 0 -2.1505150002896714 -0.8616919732385866
133 2 Ag 0 0 0 -1.8711370436824224 -0.5595887592381846
134 2 Ag 0 0 0 -1.9455298504997718 -0.6174870028150241
135 2 Ag 0 0 0 -1.732079808613153 -0.30840302018264726
136 2 Ag 0 0 0 -2.202232831328967 -0.80395634766481
137 2 Ag 0 0 0 -2.079089126485455 -0.7814229098405695
138 2 Ag 0 0 0 -1.8075344142808725 -0.3444170226130221
139 2 Ag 0 0 0 -1.6552684819413652 -0.2078243888242174
140 2 Ag 0 0 0 -1.9023300677304227 -0.5319560489344364
141 2 Ag 0 0 0 -1.760560803792721 -0.36869835333467255
142 2 Ag 0 0 0 -1.6859435218580539 -0.3642326612602759
143 2 Ag 0 0 0 -1.8174979461870007 -0.4612432877799586
144 2 Ag 0 0 0 -1.9576603470070368 -0.6220042507302576
145 2 Ag 0 0 0 -1.8797054000468991 -0.49963852668679976
146 2 Ag 0 0 0 -1.9262710683168633 -0.5776811807407213
147 2 Ag 0 0 0 -1.656341713201376 -0.160331807065768
148 2 Ag 0 0 0 -2.269275140776228 -0.9551377255704205
149 2 Ag 0 0 0 -2.046478660210832 -0.7232158021422885
150 2 Ag 0 0 0 -2.1276395465855464 -0.8170997621853139
151 2 Ag 0 0 0 -2.1912710197177847 -0.8582895346350196
152 2 Ag 0 0 0 -1.9267043738152945 -0.603457455107655
153 2 Ag 0 0 0 -2.268937472552176 -0.853743478567081
154 2 Ag 0 0 0 -1.9432405894816014 -0.5794847355222901
155 2 Ag 0 0 0 -2.0104188942229646 -0.699711544705698
156 2 Ag 0 0 0 -2.116301488353849 -0.7630503213567756
157 2 Ag 0 0 0 -2.0544184369907343 -0.6318209524922648
158 2 Ag 0 0 0 -1.880509705956665 -0.4359145191910252
159 2 Ag 0 0 0 -1.8052214594290157 -0.5860632408413989
160 2 Ag 0 0 0 -2.0430524122887377 -0.7681052274239469
161 2 Ag 0 0 0 -2.1450303610212345 -0.8397868930072825
162 2 Ag 0 0 0 -2.0316567008255277 -0.6747404449905898
163 2 Ag 0 0 0 -1.8428296150751065 -0.45188111767751354
164 2 Ag 0 0 0 -1.7434618149161865 -0.36785979413646
165 2 Ag 0 0 0 -2.2717688820451505 -0.8766096461812041
166 2 Ag 0 0 0 -2.295997048529558 -1.0285177578161697
167 2 Ag 0 0 0 -2.1234064424436956 -0.7215552545805876
168 2 Ag 0 0 0 -1.6841895594794476 -0.3701797377068837
169 2 Ag 0 0 0 -1.7279861210676626 -0.38195856429850433
170 2 Ag 0 0 0 -1.7588073384293168 -0.43727890223792454
