 # LAMMPS timestep 2846
 
       16358  atoms
           3  atom types
 
      0.000000000000     285.950000000000  xlo xhi
      0.000000000000     142.692000000000  ylo yhi
      0.000000000000     144.034000000000  zlo zhi
 
Masses
 
            1   24.30500000             # Mg
            2   28.08500000             # Si
            3   15.99900000             # O
 
Atoms # charge
 
         1    3  -1.200000       97.042000000000     101.636000000000      22.282500000000
         2    3  -1.200000       97.100500000000     112.322000000000       4.295340000000
         3    3  -1.200000       97.136500000000     112.290000000000      10.373900000000
         4    3  -1.200000       97.144800000000     112.194000000000      16.349300000000
         5    3  -1.200000       97.182900000000     112.033000000000      22.371000000000
         6    3  -1.200000       97.349100000000     122.462000000000       4.253340000000
         7    3  -1.200000       97.359900000000     122.452000000000      10.320700000000
         8    3  -1.200000       97.309600000000     122.371000000000      16.242000000000
         9    3  -1.200000       97.458200000000     122.323000000000      22.190700000000
        10    3  -1.200000       97.682700000000     132.625000000000       4.120780000000
        11    3  -1.200000       97.675700000000     132.627000000000      10.201900000000
        12    3  -1.200000       97.580500000000     132.575000000000      16.191900000000
        13    3  -1.200000       97.499400000000     132.502000000000      22.141800000000
        14    2   2.400000       97.671900000000      76.633900000000       4.309810000000
        15    3  -1.200000       98.474200000000      72.912300000000       4.205720000000
        16    3  -1.200000       98.326100000000      75.980700000000       3.009290000000
        17    3  -1.200000       98.319400000000      75.879900000000       5.558280000000
        18    3  -1.200000       98.463100000000      78.063800000000       4.352760000000
        19    1   1.200000       97.076200000000      72.501100000000       5.652910000000
        20    1   1.200000       97.070100000000      75.256600000000       1.570360000000
        21    2   2.400000       97.655200000000      76.497600000000      10.254400000000
        22    3  -1.200000       98.542200000000      72.858500000000      10.210900000000
        23    3  -1.200000       98.320200000000      75.826600000000       8.966840000000
        24    3  -1.200000       98.333100000000      75.785600000000      11.515700000000
        25    1   1.200000       97.114300000000      72.424000000000       8.698000000000
        26    3  -1.200000       98.421300000000      77.949400000000      10.277500000000
        27    1   1.200000       97.133800000000      72.422400000000      11.708000000000
        28    1   1.200000       97.315400000000      75.248900000000       7.256340000000
        29    2   2.400000       97.713800000000      76.436600000000      16.213900000000
        30    3  -1.200000       98.603000000000      72.788300000000      16.192500000000
        31    3  -1.200000       98.369700000000      75.757600000000      14.929000000000
        32    3  -1.200000       98.390700000000      75.727600000000      17.479500000000
        33    1   1.200000       97.151600000000      72.380900000000      14.708100000000
        34    3  -1.200000       98.495600000000      77.877500000000      16.237100000000
        35    1   1.200000       97.234300000000      72.339500000000      17.712500000000
        36    1   1.200000       97.355600000000      75.191900000000      13.224400000000
        37    2   2.400000       97.781900000000      76.382200000000      22.306700000000
        38    3  -1.200000       98.913600000000      72.761000000000      22.146100000000
        39    3  -1.200000       98.362400000000      75.832800000000      20.853900000000
        40    3  -1.200000       98.446900000000      75.378500000000      23.301000000000
        41    1   1.200000       97.318500000000      72.370000000000      20.812100000000
        42    3  -1.200000       98.362300000000      77.855100000000      22.335000000000
        43    1   1.200000       97.421500000000      75.158000000000      19.182900000000
        44    1   1.200000      100.025000000000      80.365200000000       1.139080000000
        45    2   2.400000       97.238200000000      78.649100000000       1.258820000000
        46    3  -1.200000       98.822600000000      78.362600000000       1.196520000000
        47    2   2.400000       98.064800000000      86.810300000000       4.351820000000
        48    3  -1.200000       98.899200000000      83.089000000000       4.242180000000
        49    3  -1.200000       98.726900000000      86.172300000000       3.046070000000
        50    3  -1.200000       98.716500000000      86.053200000000       5.596340000000
        51    1   1.200000       97.367300000000      82.581700000000       2.505510000000
        52    1   1.200000       97.368900000000      79.868900000000       4.344050000000
        53    2   2.400000       99.548000000000      81.610000000000       4.163560000000
        54    3  -1.200000      101.124000000000      81.575700000000       4.181410000000
        55    3  -1.200000       98.845800000000      88.245200000000       4.405540000000
        56    3  -1.200000       98.881600000000      80.934000000000       2.877680000000
        57    1   1.200000       97.505400000000      82.676700000000       5.681760000000
        58    3  -1.200000       98.852900000000      80.935100000000       5.460470000000
        59    1   1.200000       97.483200000000      85.448100000000       1.599080000000
        60    1   1.200000       99.798600000000      80.255200000000       7.183460000000
        61    2   2.400000       97.069600000000      78.548100000000       7.314690000000
        62    3  -1.200000       98.628100000000      78.395900000000       7.294400000000
        63    2   2.400000       98.053700000000      86.663600000000      10.304300000000
        64    3  -1.200000       98.990800000000      83.017600000000      10.246400000000
        65    3  -1.200000       98.721500000000      86.005600000000       9.011070000000
        66    3  -1.200000       98.739300000000      85.945400000000      11.559200000000
        67    1   1.200000       97.557800000000      82.589500000000       8.726050000000
        68    1   1.200000       97.397500000000      79.787100000000      10.287700000000
        69    2   2.400000       99.630500000000      81.506100000000      10.222700000000
        70    3  -1.200000      101.196000000000      81.512200000000      10.256700000000
        71    3  -1.200000       98.808900000000      88.120400000000      10.341900000000
        72    3  -1.200000       98.898100000000      80.899400000000       8.940070000000
        73    1   1.200000       97.589200000000      82.589300000000      11.730100000000
        74    3  -1.200000       98.907900000000      80.855400000000      11.497600000000
        75    1   1.200000       97.725700000000      85.427700000000       7.299020000000
        76    1   1.200000       99.870600000000      80.144100000000      13.184800000000
        77    2   2.400000       97.109800000000      78.473400000000      13.253000000000
        78    3  -1.200000       98.666300000000      78.307900000000      13.241900000000
        79    2   2.400000       98.113500000000      86.568700000000      16.272100000000
        80    3  -1.200000       99.093700000000      82.909200000000      16.220100000000
        81    3  -1.200000       98.777000000000      85.915000000000      14.978200000000
        82    3  -1.200000       98.793800000000      85.827000000000      17.524100000000
        83    1   1.200000       97.636500000000      82.513300000000      14.711600000000
        84    1   1.200000       97.466100000000      79.706200000000      16.230000000000
        85    2   2.400000       99.719800000000      81.385000000000      16.185800000000
        86    3  -1.200000      101.283000000000      81.374300000000      16.217700000000
        87    3  -1.200000       98.882800000000      88.009700000000      16.329900000000
        88    3  -1.200000       98.962000000000      80.792600000000      14.917100000000
        89    1   1.200000       97.706000000000      82.498800000000      17.666600000000
        90    3  -1.200000       98.987200000000      80.752900000000      17.465900000000
        91    1   1.200000       97.781100000000      85.359700000000      13.270100000000
        92    1   1.200000       99.943800000000      79.988900000000      19.129700000000
        93    2   2.400000       97.154000000000      78.383000000000      19.192000000000
        94    3  -1.200000       98.716600000000      78.262500000000      19.223800000000
        95    2   2.400000       97.963600000000      86.337300000000      22.288300000000
        96    3  -1.200000       99.284700000000      82.721800000000      22.361600000000
        97    3  -1.200000       98.716900000000      85.768200000000      20.922700000000
        98    3  -1.200000       98.404900000000      85.186500000000      23.308200000000
        99    1   1.200000       97.772100000000      82.182500000000      20.599000000000
       100    1   1.200000       97.702600000000      79.682300000000      22.034800000000
       101    2   2.400000       99.916000000000      81.220100000000      22.309200000000
       102    3  -1.200000      101.483000000000      81.376600000000      22.240000000000
       103    3  -1.200000       98.633600000000      87.747300000000      22.376600000000
       104    3  -1.200000       99.161600000000      80.700200000000      20.922400000000
       105    1   1.200000       97.457100000000      83.208700000000      23.181400000000
       106    3  -1.200000       99.380700000000      80.244300000000      23.410800000000
       107    1   1.200000       97.809600000000      85.255500000000      19.195100000000
       108    1   1.200000      100.384000000000      90.537300000000       1.195830000000
       109    2   2.400000       97.626400000000      88.843300000000       1.308420000000
       110    3  -1.200000       99.210400000000      88.555500000000       1.246590000000
       111    3  -1.200000       97.066600000000      89.781900000000       0.220359000000
       112    2   2.400000       98.363600000000      96.990400000000       4.372660000000
       113    3  -1.200000       99.233500000000      93.269400000000       4.291910000000
       114    3  -1.200000       99.031300000000      96.362500000000       3.064420000000
       115    3  -1.200000       99.019100000000      96.230800000000       5.614430000000
       116    1   1.200000       97.699700000000      92.768900000000       2.552300000000
       117    1   1.200000       97.733700000000      90.047700000000       4.388220000000
       118    2   2.400000       99.890100000000      91.793900000000       4.218130000000
       119    3  -1.200000      101.465000000000      91.760300000000       4.241370000000
       120    3  -1.200000       99.137800000000      98.428200000000       4.431320000000
       121    3  -1.200000       99.230000000000      91.111200000000       2.934010000000
       122    1   1.200000       97.839800000000      92.856900000000       5.731600000000
       123    3  -1.200000       99.200000000000      91.117300000000       5.516280000000
       124    1   1.200000       97.796500000000      95.632700000000       1.617940000000
       125    1   1.200000      100.150000000000      90.431400000000       7.238200000000
       126    2   2.400000       97.446000000000      88.726600000000       7.356110000000
       127    3  -1.200000       99.004300000000      88.573700000000       7.346780000000
       128    2   2.400000       98.341100000000      96.837300000000      10.311900000000
       129    3  -1.200000       99.318800000000      93.183700000000      10.314500000000
       130    3  -1.200000       99.012400000000      96.193100000000       9.016450000000
       131    3  -1.200000       99.030300000000      96.105900000000      11.559200000000
       132    1   1.200000       97.890000000000      92.773500000000       8.781660000000
       133    1   1.200000       97.756000000000      89.950200000000      10.337700000000
       134    2   2.400000       99.966200000000      91.676500000000      10.288600000000
       135    3  -1.200000      101.531000000000      91.680800000000      10.333600000000
       136    3  -1.200000       99.090100000000      98.296400000000      10.363600000000
       137    3  -1.200000       99.244100000000      91.070500000000       9.000460000000
       138    1   1.200000       97.916600000000      92.742700000000      11.798600000000
       139    3  -1.200000       99.249700000000      91.016000000000      11.561600000000
       140    1   1.200000       98.029500000000      95.611900000000       7.314730000000
       141    1   1.200000      100.208000000000      90.298600000000      13.259900000000
       142    2   2.400000       97.485000000000      88.636200000000      13.308600000000
       143    3  -1.200000       99.041300000000      88.467100000000      13.311500000000
       144    2   2.400000       98.396500000000      96.696100000000      16.230700000000
       145    3  -1.200000       99.403800000000      93.016900000000      16.350200000000
       146    3  -1.200000       99.049500000000      96.097500000000      14.918100000000
       147    3  -1.200000       99.087900000000      95.909600000000      17.456800000000
       148    1   1.200000       97.954700000000      92.663700000000      14.799700000000
       149    1   1.200000       97.793800000000      89.816700000000      16.324500000000
       150    2   2.400000      100.031000000000      91.494900000000      16.303300000000
       151    3  -1.200000      101.594000000000      91.483300000000      16.359700000000
       152    3  -1.200000       99.149600000000      98.144500000000      16.337500000000
       153    3  -1.200000       99.298100000000      90.923100000000      15.013800000000
       154    1   1.200000       98.006900000000      92.572800000000      17.788800000000
       155    3  -1.200000       99.300800000000      90.840700000000      17.575800000000
       156    1   1.200000       98.060500000000      95.525200000000      13.253300000000
       157    1   1.200000      100.217000000000      90.045600000000      19.281600000000
       158    2   2.400000       97.490200000000      88.479200000000      19.314800000000
       159    3  -1.200000       99.047800000000      88.304200000000      19.345200000000
       160    2   2.400000       98.143400000000      96.365600000000      22.015000000000
       161    3  -1.200000       99.498300000000      92.702100000000      22.552600000000
       162    3  -1.200000       99.033400000000      95.802700000000      20.795600000000
       163    3  -1.200000       98.498200000000      95.258000000000      23.154800000000
       164    1   1.200000       97.992100000000      92.095800000000      20.702800000000
       165    1   1.200000       97.855300000000      89.637900000000      22.326800000000
       166    2   2.400000      100.065000000000      91.175200000000      22.563200000000
       167    3  -1.200000      101.644000000000      91.194000000000      22.434900000000
       168    3  -1.200000       98.873300000000      97.741000000000      22.317700000000
       169    3  -1.200000       99.376800000000      90.666500000000      21.113100000000
       170    1   1.200000       97.630600000000      93.330100000000      23.120800000000
       171    3  -1.200000       99.396200000000      90.229400000000      23.628100000000
       172    1   1.200000       98.114900000000      95.339200000000      19.097200000000
       173    1   1.200000      100.663000000000     100.707000000000       1.220740000000
       174    2   2.400000       97.919400000000      99.032700000000       1.340350000000
       175    3  -1.200000       99.503400000000      98.743400000000       1.274630000000
       176    3  -1.200000       97.358200000000      99.968400000000       0.250625000000
       177    3  -1.200000       97.188700000000      99.554600000000       2.700200000000
       178    2   2.400000       98.599500000000     107.156000000000       4.439060000000
       179    3  -1.200000       97.037900000000     107.288000000000       4.397240000000
       180    3  -1.200000       99.491200000000     103.447000000000       4.325910000000
       181    3  -1.200000       99.273700000000     106.512000000000       3.141050000000
       182    3  -1.200000       99.257200000000     106.413000000000       5.687800000000
       183    1   1.200000       97.955200000000     102.940000000000       2.581240000000
       184    1   1.200000       98.010600000000     100.229000000000       4.416830000000
       185    2   2.400000      100.155000000000     101.975000000000       4.247910000000
       186    3  -1.200000      101.730000000000     101.938000000000       4.267150000000
       187    3  -1.200000       99.369800000000     108.597000000000       4.475810000000
       188    3  -1.200000       99.497400000000     101.291000000000       2.962610000000
       189    1   1.200000       98.095100000000     103.044000000000       5.763220000000
       190    3  -1.200000       99.468600000000     101.295000000000       5.545690000000
       191    1   1.200000       98.053600000000     105.798000000000       1.680980000000
       192    3  -1.200000       97.241200000000      97.554100000000       1.201920000000
       193    1   1.200000      100.420000000000     100.607000000000       7.264390000000
       194    2   2.400000       97.728200000000      98.910200000000       7.378820000000
       195    3  -1.200000       99.286100000000      98.754800000000       7.370290000000
       196    3  -1.200000       97.042500000000      99.621100000000       6.116130000000
       197    3  -1.200000       97.048300000000      99.554500000000       8.666180000000
       198    2   2.400000       98.563500000000     107.018000000000      10.391500000000
       199    3  -1.200000       97.003700000000     107.188000000000      10.391500000000
       200    3  -1.200000       99.565500000000     103.364000000000      10.339200000000
       201    3  -1.200000       99.240200000000     106.362000000000       9.101040000000
       202    3  -1.200000       99.250800000000     106.296000000000      11.644500000000
       203    1   1.200000       98.139000000000     102.954000000000       8.809480000000
       204    1   1.200000       98.022500000000     100.130000000000      10.359200000000
       205    2   2.400000      100.219000000000     101.860000000000      10.309700000000
       206    3  -1.200000      101.783000000000     101.859000000000      10.355100000000
       207    3  -1.200000       99.312600000000     108.476000000000      10.429500000000
       208    3  -1.200000       99.501200000000     101.251000000000       9.020290000000
       209    1   1.200000       98.159900000000     102.938000000000      11.819800000000
       210    3  -1.200000       99.502400000000     101.195000000000      11.578400000000
       211    1   1.200000       98.271000000000     105.794000000000       7.385290000000
       212    1   1.200000      100.463000000000     100.470000000000      13.262100000000
       213    2   2.400000       97.751900000000      98.810000000000      13.317100000000
       214    3  -1.200000       99.307600000000      98.641300000000      13.318800000000
       215    3  -1.200000       97.057900000000      99.549500000000      12.076700000000
       216    3  -1.200000       97.078000000000      99.442000000000      14.623800000000
       217    2   2.400000       98.606800000000     106.863000000000      16.361900000000
       218    3  -1.200000       97.046200000000     107.066000000000      16.390500000000
       219    3  -1.200000       99.633600000000     103.183000000000      16.342100000000
       220    3  -1.200000       99.257700000000     106.252000000000      15.045000000000
       221    3  -1.200000       99.303000000000     106.083000000000      17.585900000000
       222    1   1.200000       98.186500000000     102.852000000000      14.815100000000
       223    1   1.200000       98.058400000000      99.966500000000      16.322300000000
       224    2   2.400000      100.268000000000     101.671000000000      16.289500000000
       225    3  -1.200000      101.829000000000     101.652000000000      16.366300000000
       226    3  -1.200000       99.361400000000     108.314000000000      16.438200000000
       227    3  -1.200000       99.538800000000     101.094000000000      14.998700000000
       228    1   1.200000       98.237900000000     102.735000000000      17.792900000000
       229    3  -1.200000       99.534900000000     100.986000000000      17.542600000000
       230    1   1.200000       98.287800000000     105.716000000000      13.346200000000
       231    1   1.200000      100.472000000000     100.205000000000      19.196500000000
       232    2   2.400000       97.762100000000      98.597100000000      19.279000000000
       233    3  -1.200000       99.313100000000      98.395000000000      19.302500000000
       234    3  -1.200000       97.092300000000      99.373400000000      18.048200000000
       235    3  -1.200000       97.079200000000      99.209100000000      20.594400000000
       236    2   2.400000       98.847300000000     106.268000000000      22.326600000000
       237    3  -1.200000       97.258000000000     106.414000000000      22.507700000000
       238    3  -1.200000       99.735400000000     102.777000000000      22.382800000000
       239    3  -1.200000       99.458900000000     105.801000000000      20.980000000000
       240    3  -1.200000       99.296800000000     105.388000000000      23.622100000000
       241    1   1.200000       98.272400000000     102.493000000000      20.761800000000
       242    1   1.200000       98.048300000000      99.586800000000      22.300900000000
       243    2   2.400000      100.261000000000     101.213000000000      22.322700000000
       244    3  -1.200000      101.808000000000     101.167000000000      22.447300000000
       245    3  -1.200000       99.369700000000     107.779000000000      22.444500000000
       246    3  -1.200000       99.570700000000     100.750000000000      20.959400000000
       247    1   1.200000       98.347300000000     102.346000000000      23.697100000000
       248    3  -1.200000       99.392200000000     100.537000000000      23.475000000000
       249    1   1.200000       98.396200000000     105.460000000000      19.285500000000
       250    3  -1.200000       97.009100000000      97.150200000000      19.206700000000
       251    1   1.200000      100.896000000000     110.841000000000       1.278440000000
       252    2   2.400000       98.142000000000     109.186000000000       1.404670000000
       253    3  -1.200000       99.723100000000     108.896000000000       1.326790000000
       254    3  -1.200000       97.558900000000     110.076000000000       0.286961000000
       255    3  -1.200000       97.407800000000     109.740000000000       2.750050000000
       256    2   2.400000       98.830300000000     117.302000000000       4.452740000000
       257    3  -1.200000       97.268300000000     117.432000000000       4.417920000000
       258    3  -1.200000       99.716800000000     113.601000000000       4.366510000000
       259    3  -1.200000       99.502000000000     116.648000000000       3.159160000000
       260    3  -1.200000       99.485100000000     116.565000000000       5.706710000000
       261    1   1.200000       98.183600000000     113.084000000000       2.634830000000
       262    1   1.200000       98.232500000000     110.391000000000       4.477430000000
       263    2   2.400000      100.382000000000     112.129000000000       4.292440000000
       264    3  -1.200000      101.958000000000     112.094000000000       4.307440000000
       265    3  -1.200000       99.604400000000     118.741000000000       4.477990000000
       266    3  -1.200000       99.723500000000     111.446000000000       3.007630000000
       267    1   1.200000       98.319700000000     113.203000000000       5.812720000000
       268    3  -1.200000       99.696100000000     111.452000000000       5.591250000000
       269    1   1.200000       98.281800000000     115.925000000000       1.704010000000
       270    3  -1.200000       97.458500000000     107.706000000000       1.309750000000
       271    1   1.200000      100.645000000000     110.771000000000       7.315210000000
       272    2   2.400000       97.954800000000     109.083000000000       7.450260000000
       273    3  -1.200000       99.512600000000     108.922000000000       7.430450000000
       274    3  -1.200000       97.270400000000     109.786000000000       6.181580000000
       275    3  -1.200000       97.271900000000     109.731000000000       8.734320000000
       276    2   2.400000       98.768600000000     117.181000000000      10.413000000000
       277    3  -1.200000       97.209400000000     117.354000000000      10.423300000000
       278    3  -1.200000       99.771600000000     113.531000000000      10.385700000000
       279    3  -1.200000       99.451200000000     116.516000000000       9.129050000000
       280    3  -1.200000       99.448100000000     116.465000000000      11.675800000000
       281    1   1.200000       98.352100000000     113.118000000000       8.859980000000
       282    1   1.200000       98.226400000000     110.299000000000      10.443600000000
       283    2   2.400000      100.427000000000     112.028000000000      10.356300000000
       284    3  -1.200000      101.992000000000     112.023000000000      10.393900000000
       285    3  -1.200000       99.522800000000     118.637000000000      10.434100000000
       286    3  -1.200000       99.716100000000     111.422000000000       9.062540000000
       287    1   1.200000       98.357700000000     113.117000000000      11.871200000000
       288    3  -1.200000       99.711000000000     111.361000000000      11.624700000000
       289    1   1.200000       98.492700000000     115.951000000000       7.407660000000
       290    3  -1.200000       97.205700000000     107.619000000000       7.408410000000
       291    1   1.200000      100.663000000000     110.640000000000      13.321600000000
       292    2   2.400000       97.962300000000     108.990000000000      13.422100000000
       293    3  -1.200000       99.517500000000     108.808000000000      13.404500000000
       294    3  -1.200000       97.271700000000     109.725000000000      12.174500000000
       295    3  -1.200000       97.291300000000     109.622000000000      14.728700000000
       296    2   2.400000       98.744000000000     117.054000000000      16.423500000000
       297    3  -1.200000       97.187900000000     117.278000000000      16.441400000000
       298    3  -1.200000       99.804100000000     113.372000000000      16.392800000000
       299    3  -1.200000       99.420800000000     116.409000000000      15.130700000000
       300    3  -1.200000       99.413600000000     116.313000000000      17.687600000000
       301    1   1.200000       98.366900000000     113.022000000000      14.869100000000
       302    1   1.200000       98.246500000000     110.133000000000      16.452000000000
       303    2   2.400000      100.444000000000     111.860000000000      16.343700000000
       304    3  -1.200000      102.008000000000     111.834000000000      16.404200000000
       305    3  -1.200000       99.511500000000     118.504000000000      16.459700000000
       306    3  -1.200000       99.727700000000     111.281000000000      15.047700000000
       307    1   1.200000       98.402100000000     112.994000000000      17.843900000000
       308    3  -1.200000       99.724000000000     111.176000000000      17.601100000000
       309    1   1.200000       98.480800000000     115.893000000000      13.393100000000
       310    3  -1.200000       97.197300000000     107.537000000000      13.371300000000
       311    3  -1.200000       97.003800000000     114.820000000000      12.103500000000
       312    1   1.200000      100.679000000000     110.382000000000      19.262500000000
       313    2   2.400000       98.025900000000     108.741000000000      19.416000000000
       314    3  -1.200000       99.571700000000     108.546000000000      19.382900000000
       315    3  -1.200000       97.321400000000     109.527000000000      18.211500000000
       316    3  -1.200000       97.415800000000     109.306000000000      20.782900000000
       317    2   2.400000       98.849600000000     116.650000000000      22.622700000000
       318    3  -1.200000       97.287900000000     116.449000000000      22.808700000000
       319    3  -1.200000       99.833100000000     113.037000000000      22.443000000000
       320    3  -1.200000       99.507300000000     116.118000000000      21.252000000000
       321    3  -1.200000       99.373700000000     115.604000000000      23.807100000000
       322    1   1.200000       98.402100000000     112.752000000000      20.828600000000
       323    1   1.200000       98.497100000000     109.567000000000      22.380100000000
       324    2   2.400000      100.419000000000     111.510000000000      22.346200000000
       325    3  -1.200000      101.964000000000     111.480000000000      22.443700000000