 # LAMMPS timestep 1922
  
        8990  atoms
           3  atom types
 
      0.000000000000     270.759000000000  xlo xhi
      0.000000000000     215.304000000000  ylo yhi
      0.000000000000      63.191000000000  zlo zhi
 
Masses
 
            1   24.30500000             # Mg
            2   28.08500000             # Si
            3   15.99900000             # O
 
Atoms # charge
 
         1    3  -1.200000       59.571100000000      14.452500000000      21.919400000000
         2    3  -1.200000       59.478200000000      20.419300000000      21.937900000000
         3    3  -1.200000       59.345900000000      26.383800000000      21.944400000000
         4    3  -1.200000       59.179000000000      32.347600000000      21.934500000000
         5    3  -1.200000       59.008700000000      38.325900000000      21.909300000000
         6    3  -1.200000       58.853200000000      44.330200000000      21.899900000000
         7    1   1.200000       59.914700000000      53.376000000000      20.518600000000
         8    3  -1.200000       58.709200000000      50.336700000000      21.905400000000
         9    3  -1.200000       58.542600000000      56.346400000000      21.896100000000
        10    2   2.400000       58.704400000000      17.458800000000      18.667900000000
        11    3  -1.200000       57.149900000000      17.390000000000      18.582100000000
        12    3  -1.200000       59.366300000000      18.739500000000      19.348300000000
        13    3  -1.200000       59.416100000000      16.187800000000      19.319900000000
        14    3  -1.200000       59.374500000000      17.497500000000      17.167900000000
        15    2   2.400000       58.089400000000      14.446900000000      16.623800000000
        16    3  -1.200000       59.644800000000      14.511300000000      16.705500000000
        17    3  -1.200000       57.424500000000      13.169300000000      15.936700000000
        18    3  -1.200000       57.380400000000      15.719400000000      15.973600000000
        19    3  -1.200000       57.420900000000      14.403600000000      18.121600000000
        20    1   1.200000       58.483900000000      14.466700000000      19.959400000000
        21    1   1.200000       58.317300000000      17.437000000000      15.337500000000
        22    3  -1.200000       59.711200000000      18.795200000000      14.111600000000
        23    3  -1.200000       59.760200000000      16.244400000000      14.132000000000
        24    1   1.200000       56.065000000000      17.307000000000      20.537500000000
        25    2   2.400000       58.800200000000      17.282700000000      29.190000000000
        26    3  -1.200000       57.231600000000      17.121500000000      28.973200000000
        27    3  -1.200000       59.316700000000      18.641100000000      29.773200000000
        28    3  -1.200000       59.347000000000      15.939400000000      29.901400000000
        29    3  -1.200000       59.415800000000      17.307200000000      27.652900000000
        30    2   2.400000       58.076000000000      14.227500000000      27.106200000000
        31    3  -1.200000       59.621100000000      14.335700000000      27.157800000000
        32    3  -1.200000       57.407300000000      15.479400000000      26.328500000000
        33    3  -1.200000       57.305100000000      14.297400000000      28.549500000000
        34    1   1.200000       58.408800000000      15.879400000000      22.879400000000
        35    1   1.200000       59.545100000000      14.186300000000      31.061300000000
        36    2   2.400000       56.383100000000      14.320000000000      21.827400000000
        37    3  -1.200000       54.826800000000      14.266700000000      21.903800000000
        38    3  -1.200000       57.085900000000      13.045000000000      21.176900000000
        39    3  -1.200000       57.044000000000      15.600900000000      21.141900000000
        40    3  -1.200000       57.050700000000      14.350100000000      23.323400000000
        41    1   1.200000       58.362300000000      18.869100000000      22.874700000000
        42    1   1.200000       58.342600000000      17.238200000000      25.806700000000
        43    3  -1.200000       59.723800000000      18.735400000000      24.535000000000
        44    3  -1.200000       59.774600000000      16.182100000000      24.590300000000
        45    3  -1.200000       59.763700000000      17.411900000000      22.393200000000
        46    2   2.400000       58.590200000000      23.421000000000      18.681800000000
        47    3  -1.200000       57.034700000000      23.355500000000      18.595600000000
        48    3  -1.200000       59.243900000000      24.709400000000      19.354400000000
        49    3  -1.200000       59.306700000000      22.156800000000      19.340600000000
        50    3  -1.200000       59.260300000000      23.452400000000      17.182000000000
        51    2   2.400000       57.993100000000      20.411300000000      16.644500000000
        52    3  -1.200000       59.548000000000      20.471600000000      16.726100000000
        53    3  -1.200000       57.333100000000      19.128400000000      15.961600000000
        54    3  -1.200000       57.278300000000      21.677600000000      15.987100000000
        55    3  -1.200000       57.323100000000      20.373800000000      18.141400000000
        56    1   1.200000       58.390100000000      20.427700000000      19.980100000000
        57    1   1.200000       58.206700000000      23.402700000000      15.353200000000
        58    3  -1.200000       59.592700000000      24.742700000000      14.133800000000
        59    3  -1.200000       59.654600000000      22.192800000000      14.142700000000
        60    1   1.200000       55.953000000000      23.268800000000      20.549800000000
        61    2   2.400000       58.706200000000      23.202900000000      29.188900000000
        62    3  -1.200000       57.129100000000      23.069800000000      28.980200000000
        63    3  -1.200000       59.157000000000      24.588800000000      29.757600000000
        64    3  -1.200000       59.269000000000      21.885600000000      29.905000000000
        65    3  -1.200000       59.309600000000      23.256500000000      27.651500000000
        66    2   2.400000       58.015300000000      20.192700000000      27.105200000000
        67    3  -1.200000       59.561100000000      20.309000000000      27.155000000000
        68    3  -1.200000       57.367800000000      18.895600000000      26.443600000000
        69    3  -1.200000       57.329100000000      21.442500000000      26.330300000000
        70    3  -1.200000       57.245000000000      20.268300000000      28.550900000000
        71    1   1.200000       58.309400000000      21.849900000000      22.891600000000
        72    1   1.200000       59.494100000000      20.152200000000      31.087400000000
        73    2   2.400000       56.291200000000      20.288100000000      21.845400000000
        74    3  -1.200000       54.733700000000      20.241100000000      21.922800000000
        75    3  -1.200000       56.997700000000      19.019200000000      21.190200000000
        76    3  -1.200000       56.942800000000      21.574900000000      21.161900000000
        77    3  -1.200000       56.960000000000      20.318200000000      23.339400000000
        78    1   1.200000       58.243800000000      24.839000000000      22.882000000000
        79    1   1.200000       58.242200000000      23.204500000000      25.802800000000
        80    3  -1.200000       59.608800000000      24.700100000000      24.555700000000
        81    3  -1.200000       59.677000000000      22.147500000000      24.596800000000
        82    3  -1.200000       59.651500000000      23.387600000000      22.406700000000
        83    2   2.400000       58.442400000000      29.390900000000      18.683100000000
        84    3  -1.200000       56.886000000000      29.324600000000      18.595400000000
        85    3  -1.200000       59.088800000000      30.686600000000      19.347000000000
        86    3  -1.200000       59.161500000000      28.132900000000      19.351600000000
        87    3  -1.200000       59.112800000000      29.413900000000      17.184900000000
        88    2   2.400000       57.861900000000      26.377100000000      16.656200000000
        89    3  -1.200000       59.415800000000      26.433600000000      16.739900000000
        90    3  -1.200000       57.208200000000      25.087400000000      15.980000000000
        91    3  -1.200000       57.140900000000      27.637500000000      15.994000000000
        92    3  -1.200000       57.189200000000      26.345700000000      18.152700000000
        93    1   1.200000       58.261200000000      26.392500000000      19.984600000000
        94    1   1.200000       58.058900000000      29.371500000000      15.361000000000
        95    3  -1.200000       59.440800000000      30.701900000000      14.154400000000
        96    3  -1.200000       59.513900000000      28.150200000000      14.156700000000
        97    1   1.200000       55.809000000000      29.228900000000      20.536000000000
        98    2   2.400000       58.497100000000      29.151500000000      29.167500000000
        99    3  -1.200000       56.941800000000      29.077700000000      28.946700000000
       100    3  -1.200000       58.963000000000      30.520900000000      29.772800000000
       101    3  -1.200000       59.232100000000      27.871900000000      29.805100000000
       102    3  -1.200000       59.139800000000      29.236800000000      27.631200000000
       103    2   2.400000       57.880100000000      26.168500000000      27.043700000000
       104    3  -1.200000       59.423000000000      26.291300000000      27.129100000000
       105    3  -1.200000       57.236600000000      24.861100000000      26.421700000000
       106    3  -1.200000       57.154900000000      27.414500000000      26.338300000000
       107    3  -1.200000       57.190100000000      26.200200000000      28.551500000000
       108    1   1.200000       58.169200000000      27.819300000000      22.873700000000
       109    1   1.200000       58.249400000000      26.230300000000      30.310100000000
       110    2   2.400000       56.157200000000      26.252000000000      21.847200000000
       111    3  -1.200000       54.598000000000      26.211300000000      21.924800000000
       112    3  -1.200000       56.870800000000      24.987600000000      21.196100000000
       113    3  -1.200000       56.802800000000      27.540700000000      21.162900000000
       114    3  -1.200000       56.824400000000      26.284600000000      23.344400000000
       115    1   1.200000       58.077700000000      30.803900000000      22.869600000000
       116    1   1.200000       58.088100000000      29.159400000000      25.781200000000
       117    3  -1.200000       59.445500000000      30.669700000000      24.547000000000
       118    3  -1.200000       59.526800000000      28.113400000000      24.600600000000
       119    3  -1.200000       59.498400000000      29.355000000000      22.406200000000
       120    2   2.400000       58.275300000000      35.373900000000      18.672800000000
       121    3  -1.200000       56.718600000000      35.310100000000      18.587000000000
       122    3  -1.200000       58.918200000000      36.673400000000      19.331100000000
       123    3  -1.200000       58.995200000000      34.117400000000      19.344500000000
       124    3  -1.200000       58.945300000000      35.392600000000      17.175800000000
       125    2   2.400000       57.701100000000      32.352000000000      16.658800000000
       126    3  -1.200000       59.254400000000      32.406500000000      16.742100000000
       127    3  -1.200000       57.051900000000      31.056400000000      15.990800000000
       128    3  -1.200000       56.978000000000      33.610800000000      15.995200000000
       129    3  -1.200000       57.026500000000      32.326400000000      18.154400000000
       130    1   1.200000       58.104500000000      32.368700000000      19.974500000000
       131    1   1.200000       57.885800000000      35.353800000000      15.363100000000
       132    2   2.400000       59.995200000000      35.425500000000      13.500800000000
       133    3  -1.200000       59.269000000000      36.683200000000      14.163300000000
       134    3  -1.200000       59.346700000000      34.128100000000      14.165700000000
       135    1   1.200000       55.644700000000      35.214800000000      20.519000000000
       136    2   2.400000       58.200300000000      35.100900000000      29.089000000000
       137    3  -1.200000       56.656900000000      35.073400000000      28.829100000000
       138    3  -1.200000       58.751700000000      36.439500000000      29.710200000000
       139    3  -1.200000       58.735500000000      33.780000000000      29.839000000000
       140    3  -1.200000       58.939500000000      35.115700000000      27.612400000000
       141    2   2.400000       57.673600000000      32.112700000000      26.937000000000
       142    3  -1.200000       59.210800000000      32.221700000000      27.152400000000
       143    3  -1.200000       57.039300000000      30.803800000000      26.306600000000
       144    3  -1.200000       56.963800000000      33.365100000000      26.238800000000
       145    3  -1.200000       56.883700000000      32.114900000000      28.398300000000
       146    1   1.200000       57.990700000000      33.785600000000      22.853200000000
       147    1   1.200000       57.762600000000      31.991300000000      30.078100000000
       148    2   2.400000       55.985800000000      32.222400000000      21.815900000000
       149    3  -1.200000       54.424600000000      32.188700000000      21.892500000000
       150    3  -1.200000       56.705500000000      30.959700000000      21.171200000000
       151    3  -1.200000       56.632900000000      33.516900000000      21.144300000000
       152    3  -1.200000       56.644700000000      32.247800000000      23.315100000000
       153    1   1.200000       57.902900000000      36.777600000000      22.841600000000
       154    1   1.200000       57.898700000000      35.120300000000      25.741400000000
       155    2   2.400000       59.995700000000      35.363400000000      23.874600000000
       156    3  -1.200000       59.270100000000      36.631300000000      24.510600000000
       157    3  -1.200000       59.352800000000      34.074100000000      24.570600000000
       158    3  -1.200000       59.321600000000      35.320700000000      22.376300000000
       159    2   2.400000       58.110000000000      41.370900000000      18.664100000000
       160    3  -1.200000       56.553400000000      41.310600000000      18.582700000000
       161    3  -1.200000       58.754400000000      42.670500000000      19.321700000000
       162    3  -1.200000       58.827500000000      40.111200000000      19.331200000000
       163    3  -1.200000       58.778400000000      41.390000000000      17.167000000000
       164    2   2.400000       57.530300000000      38.343600000000      16.656500000000
       165    3  -1.200000       59.083600000000      38.396200000000      16.737400000000
       166    3  -1.200000       56.882000000000      37.045800000000      15.992900000000
       167    3  -1.200000       56.808800000000      39.604200000000      15.994700000000
       168    3  -1.200000       56.855600000000      38.320500000000      18.151900000000
       169    1   1.200000       57.935800000000      38.358100000000      19.960100000000
       170    3  -1.200000       56.495900000000      38.309500000000      13.000200000000
       171    1   1.200000       57.711300000000      41.351300000000      15.363300000000
       172    2   2.400000       59.819800000000      41.417900000000      13.502400000000
       173    3  -1.200000       59.097100000000      42.677600000000      14.164900000000
       174    3  -1.200000       59.172200000000      40.120700000000      14.167400000000
       175    1   1.200000       55.484000000000      41.217800000000      20.513600000000
       176    2   2.400000       58.110300000000      41.055400000000      29.048100000000
       177    3  -1.200000       56.559500000000      41.041300000000      28.842200000000
       178    3  -1.200000       58.702200000000      42.397800000000      29.636000000000
       179    3  -1.200000       58.664000000000      39.726300000000      29.775800000000
       180    3  -1.200000       58.823100000000      41.042600000000      27.557200000000
       181    2   2.400000       57.503900000000      38.075300000000      26.944500000000
       182    3  -1.200000       59.051600000000      38.139300000000      27.130800000000
       183    3  -1.200000       56.869700000000      36.775400000000      26.297900000000
       184    3  -1.200000       56.809700000000      39.333100000000      26.246300000000
       185    3  -1.200000       56.725500000000      38.082800000000      28.413100000000
       186    1   1.200000       57.823200000000      39.773100000000      22.824700000000
       187    1   1.200000       57.625900000000      37.967700000000      30.116300000000
       188    2   2.400000       55.817400000000      38.214500000000      21.804200000000
       189    3  -1.200000       54.257300000000      38.189000000000      21.878900000000
       190    3  -1.200000       56.533800000000      36.951000000000      21.156400000000
       191    3  -1.200000       56.467300000000      39.511500000000      21.136400000000
       192    3  -1.200000       56.480400000000      38.234600000000      23.302100000000
       193    1   1.200000       57.745000000000      42.771500000000      22.822700000000
       194    1   1.200000       57.734400000000      41.079900000000      25.717000000000
       195    2   2.400000       59.831300000000      41.345000000000      23.836500000000
       196    3  -1.200000       59.117800000000      42.616800000000      24.477600000000
       197    3  -1.200000       59.184700000000      40.053900000000      24.528100000000
       198    3  -1.200000       59.151300000000      41.310200000000      22.340900000000
       199    1   1.200000       59.948300000000      48.939800000000      17.658000000000
       200    2   2.400000       57.951000000000      47.376700000000      18.665100000000
       201    3  -1.200000       56.394700000000      47.318200000000      18.586400000000
       202    3  -1.200000       58.598700000000      48.675300000000      19.324000000000
       203    3  -1.200000       58.668200000000      46.115500000000      19.330300000000
       204    3  -1.200000       58.617100000000      47.396200000000      17.167500000000
       205    1   1.200000       59.998100000000      44.423500000000      14.792800000000
       206    2   2.400000       57.364200000000      44.347500000000      16.656600000000
       207    3  -1.200000       58.917800000000      44.398600000000      16.735800000000
       208    3  -1.200000       56.715000000000      43.049800000000      15.994300000000
       209    3  -1.200000       56.644200000000      45.609900000000      15.997400000000
       210    3  -1.200000       56.692000000000      44.325400000000      18.153200000000
       211    1   1.200000       57.775800000000      44.358300000000      19.953800000000
       212    3  -1.200000       56.327000000000      44.309100000000      13.004000000000
       213    1   1.200000       57.544600000000      47.356800000000      15.365800000000
       214    2   2.400000       59.652500000000      47.417800000000      13.506000000000
       215    3  -1.200000       58.932100000000      48.679100000000      14.168800000000
       216    3  -1.200000       59.004800000000      46.120500000000      14.170000000000
       217    1   1.200000       55.329200000000      47.227700000000      20.517600000000
       218    2   2.400000       58.031900000000      47.044000000000      29.058300000000
       219    3  -1.200000       56.481800000000      47.017400000000      28.874000000000
       220    3  -1.200000       58.627900000000      48.393800000000      29.624700000000
       221    3  -1.200000       58.627100000000      45.720300000000      29.773600000000
       222    3  -1.200000       58.734500000000      47.027600000000      27.557000000000
       223    2   2.400000       57.374800000000      44.049000000000      26.943400000000
       224    3  -1.200000       58.927200000000      44.111800000000      27.075500000000
       225    3  -1.200000       56.735000000000      42.746700000000      26.314500000000
       226    3  -1.200000       56.680600000000      45.314000000000      26.260400000000
       227    3  -1.200000       56.641600000000      44.063700000000      28.436000000000
       228    1   1.200000       57.675900000000      45.779900000000      22.818100000000
       229    1   1.200000       57.626000000000      43.947800000000      30.112400000000
       230    2   2.400000       55.665500000000      44.222000000000      21.807200000000
       231    3  -1.200000       54.106800000000      44.198700000000      21.884200000000
       232    3  -1.200000       56.376900000000      42.957900000000      21.153700000000
       233    3  -1.200000       56.315200000000      45.520500000000      21.141900000000
       234    3  -1.200000       56.335000000000      44.236700000000      23.304000000000
       235    1   1.200000       57.602900000000      48.779900000000      22.828200000000
       236    1   1.200000       57.600500000000      47.064700000000      25.727100000000
       237    2   2.400000       59.692300000000      47.351500000000      23.833500000000
       238    3  -1.200000       58.993300000000      48.626900000000      24.480900000000
       239    3  -1.200000       59.046100000000      46.060200000000      24.526500000000
       240    3  -1.200000       59.009900000000      47.318400000000      22.343000000000
       241    1   1.200000       59.781500000000      54.950500000000      17.656600000000
       242    2   2.400000       57.788100000000      53.385700000000      18.664800000000
       243    3  -1.200000       56.231800000000      53.326000000000      18.588300000000
       244    3  -1.200000       58.433700000000      54.686600000000      19.319600000000
       245    3  -1.200000       58.509400000000      52.126000000000      19.331800000000
       246    3  -1.200000       58.453300000000      53.403000000000      17.166900000000
       247    1   1.200000       59.865200000000      51.946300000000      17.650000000000
       248    1   1.200000       59.831100000000      50.428800000000      14.796200000000
       249    2   2.400000       57.201100000000      50.355500000000      16.658700000000
       250    3  -1.200000       58.755300000000      50.405600000000      16.737200000000
       251    3  -1.200000       56.551900000000      49.056900000000      15.998200000000
       252    3  -1.200000       56.480200000000      51.616900000000      15.999800000000
       253    3  -1.200000       56.532300000000      50.333700000000      18.157000000000
       254    1   1.200000       57.621300000000      50.365900000000      19.954900000000
       255    3  -1.200000       56.161100000000      50.313600000000      13.007700000000
       256    1   1.200000       57.376400000000      53.365500000000      15.366900000000
       257    2   2.400000       59.485500000000      53.426600000000      13.508400000000
       258    3  -1.200000       58.763900000000      54.688200000000      14.168800000000
       259    3  -1.200000       58.839300000000      52.128300000000      14.172500000000
       260    1   1.200000       59.925500000000      54.573300000000      28.008400000000
       261    1   1.200000       55.170400000000      53.234200000000      20.521600000000
       262    2   2.400000       57.937200000000      53.053000000000      29.051200000000
       263    3  -1.200000       56.384700000000      53.014400000000      28.890500000000
       264    3  -1.200000       58.526900000000      54.413200000000      29.591800000000
       265    3  -1.200000       58.556300000000      51.736700000000      29.767900000000
       266    3  -1.200000       58.630200000000      53.017200000000      27.546900000000
       267    1   1.200000       59.878600000000      50.352400000000      25.118000000000
       268    2   2.400000       57.277500000000      50.045900000000      26.969900000000
       269    3  -1.200000       58.834700000000      50.107100000000      27.094200000000
       270    3  -1.200000       56.638600000000      48.736300000000      26.352000000000
       271    3  -1.200000       56.575300000000      51.301900000000      26.279300000000
       272    3  -1.200000       56.556000000000      50.064000000000      28.469900000000
       273    1   1.200000       57.529700000000      51.791600000000      22.817200000000
       274    1   1.200000       57.586600000000      49.960900000000      30.139700000000
       275    2   2.400000       55.519400000000      50.229700000000      21.816900000000
       276    3  -1.200000       53.961600000000      50.207800000000      21.895900000000
       277    3  -1.200000       56.229700000000      48.965800000000      21.160900000000
       278    3  -1.200000       56.165500000000      51.528800000000      21.148500000000
       279    3  -1.200000       56.196900000000      50.243800000000      23.311200000000
       280    1   1.200000       57.447300000000      54.792500000000      22.827900000000
       281    1   1.200000       57.470500000000      53.068500000000      25.735200000000
       282    2   2.400000       59.545700000000      53.366100000000      23.827300000000
       283    3  -1.200000       58.844000000000      54.636400000000      24.474600000000
       284    3  -1.200000       58.910200000000      52.069500000000      24.523500000000
       285    3  -1.200000       58.859200000000      53.328400000000      22.338800000000
       286    1   1.200000       59.690400000000      57.957300000000      17.646400000000
       287    1   1.200000       59.659000000000      56.441900000000      14.793600000000
       288    2   2.400000       57.028700000000      56.365100000000      16.656700000000
       289    3  -1.200000       58.583500000000      56.415700000000      16.733500000000
       290    3  -1.200000       56.382000000000      55.063500000000      15.999200000000
       291    3  -1.200000       56.304800000000      57.623300000000      15.994500000000
       292    3  -1.200000       56.360500000000      56.344800000000      18.155000000000
       293    1   1.200000       57.451700000000      56.375800000000      19.952600000000
       294    3  -1.200000       55.988700000000      56.320400000000      13.002800000000
       295    3  -1.200000       58.425000000000      57.762800000000      29.735500000000
       296    1   1.200000       59.851500000000      57.636100000000      27.999500000000
       297    1   1.200000       59.709800000000      56.375000000000      25.100600000000
       298    2   2.400000       57.134500000000      56.057200000000      26.975600000000
       299    3  -1.200000       58.691000000000      56.116400000000      27.076800000000
       300    3  -1.200000       56.505600000000      54.733700000000      26.372400000000
       301    3  -1.200000       56.418300000000      57.304100000000      26.281400000000
       302    3  -1.200000       56.429900000000      56.078100000000      28.485000000000
       303    1   1.200000       57.357000000000      57.804300000000      22.812900000000
       304    1   1.200000       57.511000000000      55.983700000000      30.149400000000
       305    2   2.400000       55.353300000000      56.238800000000      21.818600000000
       306    3  -1.200000       53.795800000000      56.216800000000      21.901100000000
       307    3  -1.200000       56.066000000000      54.977000000000      21.159800000000
       308    3  -1.200000       55.992200000000      57.541600000000      21.150300000000
       309    3  -1.200000       56.035000000000      56.251500000000      23.311100000000
       310    1   1.200000       55.974600000000      18.849100000000      17.656800000000
       311    2   2.400000       53.954200000000      17.293600000000      18.661300000000
       312    3  -1.200000       52.398500000000      17.234400000000      18.580700000000
       313    3  -1.200000       54.616600000000      18.577200000000      19.334900000000
       314    3  -1.200000       54.665000000000      16.023900000000      19.317100000000
       315    3  -1.200000       54.623600000000      17.324600000000      17.162300000000
       316    1   1.200000       56.022000000000      15.866400000000      17.642000000000
       317    1   1.200000       55.984500000000      14.369400000000      14.751100000000
       318    2   2.400000       53.336600000000      14.284700000000      16.626400000000
       319    3  -1.200000       54.892100000000      14.338700000000      16.707000000000
       320    3  -1.200000       52.669000000000      13.004800000000      15.946500000000
       321    3  -1.200000       52.627800000000      15.556500000000      15.974200000000
       322    3  -1.200000       52.667200000000      14.249600000000      18.124700000000
       323    1   1.200000       53.737700000000      14.296400000000      19.953300000000
       324    1   1.200000       53.563100000000      17.277200000000      15.337100000000
       325    2   2.400000       55.670500000000      17.352600000000      13.464600000000