ITEM: TIMESTEP
0
ITEM: NUMBER OF ATOMS
1120
ITEM: BOX BOUNDS xy xz yz pp pp pp
0	15.1985	1.5
0	15.2669	3.5
0	90.2739	2.4
ITEM: ATOMS id type xu yu zu q
1 3 7.37046 4.18303 1.61674 1.2
2 2 6.05791 1.51879 0.22554 2.4
3 1 6.03649 0.923366 1.72487 -1.2
4 1 6.76161 0.572999 89.364 -1.2
5 1 6.76161 2.98586 0.04833 -1.2
6 1 4.55873 1.77663 89.8502 -1.2
7 3 7.37046 2.43023 6.03043 1.2
8 2 9.23984 3.42091 3.53581 2.4
9 1 9.26126 2.82549 5.03514 -1.2
10 1 8.53614 2.47512 2.40039 -1.2
11 1 8.53614 4.88798 3.3586 -1.2
12 1 0.540521 3.67875 2.88656 -1.2
13 3 2.82804 1.37401 0.590111 1.2
14 2 0.958659 0.383329 3.08473 2.4
15 1 0.937242 0.978754 1.5854 -1.2
16 1 1.66236 1.32912 4.22015 -1.2
17 1 1.66236 11.7831 3.26194 -1.2
18 1 9.65798 0.125493 3.73399 -1.2
19 3 5.09925 1.90212 3.31027 1.2
20 3 7.92729 0.52811 2.72016 1.2
21 2 6.05791 12.6329 4.63924 2.4
22 1 6.03649 12.0374 6.13857 -1.2
23 1 6.76161 11.6871 3.50381 -1.2
24 1 6.76161 1.23307 4.46203 -1.2
25 1 4.55873 0.0238309 3.98998 -1.2
26 3 5.09925 4.68064 4.4137 1.2
27 3 2.27121 3.27613 3.90038 1.2
28 2 4.14059 4.03825 1.98131 2.4
29 1 4.16201 4.63367 0.481976 -1.2
30 1 3.43689 2.57117 2.15852 -1.2
31 1 3.43689 4.98404 3.11673 -1.2
32 1 5.63977 3.78041 2.63056 -1.2
33 3 7.37046 0.677434 10.4441 1.2
34 2 9.23984 1.66811 7.94951 2.4
35 1 9.26126 1.07269 9.44884 -1.2
36 1 8.53614 0.722323 6.81408 -1.2
37 1 8.53614 3.13519 7.7723 -1.2
38 1 0.540521 1.92595 7.30025 -1.2
39 3 2.82804 12.4881 5.00381 1.2
40 2 0.958659 11.4974 7.49843 2.4
41 1 0.937242 12.0928 5.99909 -1.2
42 1 1.66236 12.4432 8.63385 -1.2
43 1 1.66236 10.0303 7.67564 -1.2
44 1 9.65798 11.2396 8.14768 -1.2
45 3 5.09925 0.149324 7.72397 1.2
46 3 7.92729 11.6422 7.13386 1.2
47 2 6.05791 10.8801 9.05293 2.4
48 1 6.03649 10.2846 10.5523 -1.2
49 1 6.76161 9.93428 7.91751 -1.2
50 1 6.76161 12.3471 8.87572 -1.2
51 1 4.55873 11.1379 8.40368 -1.2
52 3 5.09925 2.92784 8.82739 1.2
53 3 2.27121 1.52333 8.31408 1.2
54 2 4.14059 2.28545 6.395 2.4
55 1 4.16201 2.88087 4.89567 -1.2
56 1 3.43689 0.818376 6.57221 -1.2
57 1 3.43689 3.23124 7.53043 -1.2
58 1 5.63977 2.02761 7.04426 -1.2
59 3 7.37046 11.7915 14.8578 1.2
60 2 9.23984 12.7822 12.3632 2.4
61 1 9.26126 12.1868 13.8625 -1.2
62 1 8.53614 11.8364 11.2278 -1.2
63 1 8.53614 1.38239 12.186 -1.2
64 1 0.540521 0.173155 11.7139 -1.2
65 3 2.82804 10.7353 9.4175 1.2
66 2 0.958659 9.74461 11.9121 2.4
67 1 0.937242 10.34 10.4128 -1.2
68 1 1.66236 8.27753 12.0893 -1.2
69 1 1.66236 10.6904 13.0475 -1.2
70 1 9.65798 9.48677 12.5614 -1.2
71 3 5.09925 11.2634 12.1377 1.2
72 3 7.92729 9.88939 11.5476 1.2
73 2 6.05791 9.12727 13.4666 2.4
74 1 6.03649 8.53185 14.966 -1.2
75 1 6.76161 8.18148 12.3312 -1.2
76 1 6.76161 10.5943 13.2894 -1.2
77 1 4.55873 9.38511 12.8174 -1.2
78 3 5.09925 1.17505 13.2411 1.2
79 3 2.27121 12.6374 12.7278 1.2
80 2 4.14059 0.532653 10.8087 2.4
81 1 4.16201 1.12808 9.30937 -1.2
82 1 3.43689 11.9324 10.9859 -1.2
83 1 3.43689 1.47845 11.9441 -1.2
84 1 5.63977 0.274817 11.458 -1.2
85 3 7.37046 10.0387 19.2715 1.2
86 2 9.23984 11.0294 16.7769 2.4
87 1 9.26126 10.434 18.2762 -1.2
88 1 8.53614 10.0836 15.6415 -1.2
89 1 8.53614 12.4965 16.5997 -1.2
90 1 0.540521 11.2872 16.1276 -1.2
91 3 2.82804 8.98249 13.8312 1.2
92 2 0.958659 7.99181 16.3258 2.4
93 1 0.937242 8.58723 14.8265 -1.2
94 1 1.66236 8.9376 17.4612 -1.2
95 1 1.66236 6.52474 16.503 -1.2
96 1 9.65798 7.73397 16.9751 -1.2
97 3 5.09925 9.5106 16.5514 1.2
98 3 7.92729 8.13659 15.9612 1.2
99 2 6.05791 7.37448 17.8803 2.4
100 1 6.03649 6.77905 19.3797 -1.2
101 1 6.76161 6.42868 16.7449 -1.2
102 1 6.76161 8.84155 17.7031 -1.2
103 1 4.55873 7.63231 17.2311 -1.2
104 3 5.09925 12.2891 17.6548 1.2
105 3 2.27121 10.8846 17.1415 1.2
106 2 4.14059 11.6467 15.2224 2.4
107 1 4.16201 12.2422 13.7231 -1.2
108 1 3.43689 10.1797 15.3996 -1.2
109 1 3.43689 12.5925 16.3578 -1.2
110 1 5.63977 11.3889 15.8716 -1.2
111 3 7.37046 8.28591 23.6852 1.2
112 2 9.23984 9.2766 21.1906 2.4
113 1 9.26126 8.68117 22.6899 -1.2
114 1 8.53614 10.7437 21.0134 -1.2
115 1 8.53614 8.3308 20.0552 -1.2
116 1 0.540521 9.53443 20.5413 -1.2
117 3 2.82804 7.22969 18.2449 1.2
118 2 0.958659 6.23901 20.7395 2.4
119 1 0.937242 6.83444 19.2402 -1.2
120 1 1.66236 4.77194 20.9167 -1.2
121 1 1.66236 7.18481 21.8749 -1.2
122 1 9.65798 5.98118 21.3888 -1.2
123 3 5.09925 7.7578 20.9651 1.2
124 3 7.92729 6.38379 20.3749 1.2
125 2 6.05791 5.62168 22.294 2.4
126 1 6.03649 5.02625 23.7933 -1.2
127 1 6.76161 4.67589 21.1586 -1.2
128 1 6.76161 7.08875 22.1168 -1.2
129 1 4.55873 5.87952 21.6448 -1.2
130 3 5.09925 10.5363 22.0685 1.2
131 3 2.27121 9.13181 21.5552 1.2
132 2 4.14059 9.89393 19.6361 2.4
133 1 4.16201 10.4894 18.1368 -1.2
134 1 3.43689 8.42686 19.8133 -1.2
135 1 3.43689 10.8397 20.7715 -1.2
136 1 5.63977 9.63609 20.2853 -1.2
137 3 7.37046 6.53312 28.0989 1.2
138 2 9.23984 7.5238 25.6043 2.4
139 1 9.26126 6.92837 27.1036 -1.2
140 1 8.53614 6.57801 24.4689 -1.2
141 1 8.53614 8.99087 25.4271 -1.2
142 1 0.540521 7.78164 24.955 -1.2
143 3 2.82804 5.4769 22.6586 1.2
144 2 0.958659 4.48622 25.1532 2.4
145 1 0.937242 5.08164 23.6539 -1.2
146 1 1.66236 5.43201 26.2886 -1.2
147 1 1.66236 3.01914 25.3304 -1.2
148 1 9.65798 4.22838 25.8025 -1.2
149 3 5.09925 6.00501 25.3787 1.2
150 3 7.92729 4.631 24.7886 1.2
151 2 6.05791 3.86888 26.7077 2.4
152 1 6.03649 3.27346 28.207 -1.2
153 1 6.76161 5.33596 26.5305 -1.2
154 1 6.76161 2.92309 25.5723 -1.2
155 1 4.55873 4.12672 26.0585 -1.2
156 3 5.09925 8.78353 26.4822 1.2
157 3 2.27121 7.37902 25.9689 1.2
158 2 4.14059 8.14113 24.0498 2.4
159 1 4.16201 8.73656 22.5505 -1.2
160 1 3.43689 6.67406 24.227 -1.2
161 1 3.43689 9.08693 25.1852 -1.2
162 1 5.63977 7.8833 24.699 -1.2
163 3 7.37046 4.78032 32.5126 1.2
164 2 9.23984 5.771 30.018 2.4
165 1 9.26126 5.17558 31.5173 -1.2
166 1 8.53614 7.23808 29.8408 -1.2
167 1 8.53614 4.82521 28.8826 -1.2
168 1 0.540521 6.02884 29.3687 -1.2
169 3 2.82804 3.7241 27.0723 1.2
170 2 0.958659 2.73342 29.5669 2.4
171 1 0.937242 3.32885 28.0676 -1.2
172 1 1.66236 3.67921 30.7023 -1.2
173 1 1.66236 1.26635 29.7441 -1.2
174 1 9.65798 2.47558 30.2162 -1.2
175 3 5.09925 4.25221 29.7924 1.2
176 3 7.92729 2.8782 29.2023 1.2
177 2 6.05791 2.11609 31.1214 2.4
178 1 6.03649 1.52066 32.6207 -1.2
179 1 6.76161 1.17029 29.986 -1.2
180 1 6.76161 3.58316 30.9442 -1.2
181 1 4.55873 2.37392 30.4722 -1.2
182 3 5.09925 7.03073 30.8959 1.2
183 3 2.27121 5.62622 30.3826 1.2
184 2 4.14059 6.38834 28.4635 2.4
185 1 4.16201 6.98376 26.9641 -1.2
186 1 3.43689 4.92126 28.6407 -1.2
187 1 3.43689 7.33413 29.5989 -1.2
188 1 5.63977 6.1305 29.1127 -1.2
189 3 7.37046 3.02753 36.9263 1.2
190 2 9.23984 4.01821 34.4317 2.4
191 1 9.26126 3.42278 35.931 -1.2
192 1 8.53614 3.07241 33.2963 -1.2
193 1 8.53614 5.48528 34.2545 -1.2
194 1 0.540521 4.27604 33.7824 -1.2
195 3 2.82804 1.97131 31.486 1.2
196 2 0.958659 0.980625 33.9806 2.4
197 1 0.937242 1.57605 32.4813 -1.2
198 1 1.66236 1.92642 35.116 -1.2
199 1 1.66236 12.3804 34.1578 -1.2
200 1 9.65798 0.722789 34.6299 -1.2
201 3 5.09925 2.49942 34.2061 1.2
202 3 7.92729 1.12541 33.616 1.2
203 2 6.05791 0.36329 35.5351 2.4
204 1 6.03649 12.6347 37.0344 -1.2
205 1 6.76161 1.83036 35.3579 -1.2
206 1 6.76161 12.2844 34.3997 -1.2
207 1 4.55873 0.621126 34.8858 -1.2
208 3 5.09925 5.27793 35.3096 1.2
209 3 2.27121 3.87343 34.7962 1.2
210 2 4.14059 4.63554 32.8772 2.4
211 1 4.16201 5.23097 31.3778 -1.2
212 1 3.43689 5.58133 34.0126 -1.2
213 1 3.43689 3.16847 33.0544 -1.2
214 1 5.63977 4.37771 33.5264 -1.2
215 3 7.37046 1.27473 41.34 1.2
216 2 9.23984 2.26541 38.8454 2.4
217 1 9.26126 1.66999 40.3447 -1.2
218 1 8.53614 3.73248 38.6682 -1.2
219 1 8.53614 1.31962 37.71 -1.2
220 1 0.540521 2.52325 38.1961 -1.2
221 3 2.82804 0.218509 35.8997 1.2
222 2 0.958659 12.0947 38.3943 2.4
223 1 0.937242 12.6901 36.895 -1.2
224 1 1.66236 0.173621 39.5297 -1.2
225 1 1.66236 10.6276 38.5715 -1.2
226 1 9.65798 11.8369 39.0435 -1.2
227 3 5.09925 0.74662 38.6198 1.2
228 3 7.92729 12.2395 38.0297 1.2
229 2 6.05791 11.4774 39.9488 2.4
230 1 6.03649 10.8819 41.4481 -1.2
231 1 6.76161 10.5316 38.8134 -1.2
232 1 6.76161 0.0775673 39.7716 -1.2
233 1 4.55873 11.7352 39.2995 -1.2
234 3 5.09925 3.52514 39.7233 1.2
235 3 2.27121 2.12063 39.2099 1.2
236 2 4.14059 2.88275 37.2909 2.4
237 1 4.16201 3.47817 35.7915 -1.2
238 1 3.43689 1.41567 37.4681 -1.2
239 1 3.43689 3.82854 38.4263 -1.2
240 1 5.63977 2.62491 37.9401 -1.2
241 2 9.23984 0.512614 43.2591 2.4
242 1 9.26126 12.7841 44.7584 -1.2
243 1 8.53614 1.97969 43.0819 -1.2
244 1 8.53614 12.4337 42.1236 -1.2
245 1 0.540521 0.77045 42.6098 -1.2
246 3 2.82804 11.3326 40.3134 1.2
247 2 0.958659 10.3419 42.808 2.4
248 1 0.937242 10.9373 41.3087 -1.2
249 1 1.66236 11.2877 43.9434 -1.2
250 1 1.66236 8.87483 42.9852 -1.2
251 1 9.65798 10.0841 43.4572 -1.2
252 3 5.09925 11.8607 43.0335 1.2
253 3 7.92729 10.4867 42.4434 1.2
254 3 5.09925 1.77234 44.137 1.2
255 3 2.27121 0.367833 43.6236 1.2
256 2 4.14059 1.12995 41.7046 2.4
257 1 4.16201 1.72537 40.2052 -1.2
258 1 3.43689 12.5297 41.8818 -1.2
259 1 3.43689 2.07574 42.84 -1.2
260 1 5.63977 0.872113 42.3538 -1.2
261 3 7.37046 9.74006 3.82358 1.2
262 2 9.23984 10.7307 1.32896 2.4
263 1 9.26126 10.1353 2.8283 -1.2
264 1 8.53614 9.78495 0.193541 -1.2
265 1 8.53614 12.1978 1.15175 -1.2
266 1 0.540521 10.9886 0.679709 -1.2
267 2 0.958659 7.69316 0.877884 2.4
268 1 0.937242 8.28859 89.6525 -1.2
269 1 1.66236 8.63895 2.01331 -1.2
270 1 1.66236 6.22609 1.05509 -1.2
271 1 9.65798 7.43533 1.52714 -1.2
272 3 5.09925 9.21195 1.10342 1.2
273 3 7.92729 7.83794 0.513313 1.2
274 2 6.05791 7.07583 2.43239 2.4
275 1 6.03649 6.4804 3.93172 -1.2
276 1 6.76161 6.13004 1.29696 -1.2
277 1 6.76161 8.5429 2.25518 -1.2
278 1 4.55873 7.33366 1.78313 -1.2
279 3 5.09925 11.9905 2.20685 1.2
280 3 2.27121 10.586 1.69353 1.2
281 3 7.37046 7.98727 8.23728 1.2
282 2 9.23984 8.97795 5.74266 2.4
283 1 9.26126 8.38252 7.24199 -1.2
284 1 8.53614 10.445 5.56545 -1.2
285 1 8.53614 8.03216 4.60724 -1.2
286 1 0.540521 9.23578 5.0934 -1.2
287 3 2.82804 6.93105 2.79696 1.2
288 2 0.958659 5.94037 5.29158 2.4
289 1 0.937242 6.53579 3.79225 -1.2
290 1 1.66236 4.47329 5.46879 -1.2
291 1 1.66236 6.88616 6.427 -1.2
292 1 9.65798 5.68253 5.94083 -1.2
293 3 5.09925 7.45916 5.51712 1.2
294 3 7.92729 6.08515 4.92701 1.2
295 2 6.05791 5.32303 6.84608 2.4
296 1 6.03649 4.72761 8.34542 -1.2
297 1 6.76161 4.37724 5.71066 -1.2
298 1 6.76161 6.7901 6.66887 -1.2
299 1 4.55873 5.58087 6.19683 -1.2
300 3 5.09925 10.2377 6.62054 1.2
301 3 2.27121 8.83317 6.10723 1.2
302 2 4.14059 9.59528 4.18816 2.4
303 1 4.16201 10.1907 2.68882 -1.2
304 1 3.43689 10.5411 5.32358 -1.2
305 1 3.43689 8.12821 4.36537 -1.2
306 1 5.63977 9.33745 4.83741 -1.2
307 3 7.37046 6.23447 12.651 1.2
308 2 9.23984 7.22515 10.1564 2.4
309 1 9.26126 6.62973 11.6557 -1.2
310 1 8.53614 6.27936 9.02093 -1.2
311 1 8.53614 8.69222 9.97914 -1.2
312 1 0.540521 7.48299 9.5071 -1.2
313 3 2.82804 5.17825 7.21065 1.2
314 2 0.958659 4.18757 9.70527 2.4
315 1 0.937242 4.78299 8.20594 -1.2
316 1 1.66236 5.13336 10.8407 -1.2
317 1 1.66236 2.7205 9.88248 -1.2
318 1 9.65798 3.92973 10.3545 -1.2
319 3 5.09925 5.70636 9.93081 1.2
320 3 7.92729 4.33235 9.3407 1.2
321 2 6.05791 3.57023 11.2598 2.4
322 1 6.03649 2.97481 12.7591 -1.2
323 1 6.76161 5.03731 11.0826 -1.2
324 1 6.76161 2.62444 10.1244 -1.2
325 1 4.55873 3.82807 10.6105 -1.2
326 3 5.09925 8.48488 11.0342 1.2
327 3 2.27121 7.08037 10.5209 1.2
328 2 4.14059 7.84249 8.60185 2.4
329 1 4.16201 8.43791 7.10252 -1.2
330 1 3.43689 6.37541 8.77906 -1.2
331 1 3.43689 8.78828 9.73727 -1.2
332 1 5.63977 7.58465 9.25111 -1.2
333 3 7.37046 4.48167 17.0647 1.2
334 2 9.23984 5.47236 14.57 2.4
335 1 9.26126 4.87693 16.0694 -1.2
336 1 8.53614 4.52656 13.4346 -1.2
337 1 8.53614 6.93943 14.3928 -1.2
338 1 0.540521 5.73019 13.9208 -1.2
339 3 2.82804 3.42545 11.6243 1.2
340 2 0.958659 2.43477 14.119 2.4
341 1 0.937242 3.0302 12.6196 -1.2
342 1 1.66236 3.38057 15.2544 -1.2
343 1 1.66236 0.9677 14.2962 -1.2
344 1 9.65798 2.17694 14.7682 -1.2
345 3 5.09925 3.95356 14.3445 1.2
346 3 7.92729 2.57955 13.7544 1.2
347 2 6.05791 1.81744 15.6735 2.4
348 1 6.03649 1.22201 17.1728 -1.2
349 1 6.76161 0.871647 14.5381 -1.2
350 1 6.76161 3.28451 15.4963 -1.2
351 1 4.55873 2.07527 15.0242 -1.2
352 3 5.09925 6.73208 15.4479 1.2
353 3 2.27121 5.32757 14.9346 1.2
354 2 4.14059 6.08969 13.0155 2.4
355 1 4.16201 6.68511 11.5162 -1.2
356 1 3.43689 4.62262 13.1928 -1.2
357 1 3.43689 7.03548 14.151 -1.2
358 1 5.63977 5.83185 13.6648 -1.2
359 3 7.37046 2.72888 21.4784 1.2
360 2 9.23984 3.71956 18.9837 2.4
361 1 9.26126 3.12413 20.4831 -1.2
362 1 8.53614 2.77377 17.8483 -1.2
363 1 8.53614 5.18663 18.8065 -1.2
364 1 0.540521 3.9774 18.3345 -1.2
365 3 2.82804 1.67266 16.038 1.2
366 2 0.958659 0.681977 18.5327 2.4
367 1 0.937242 1.2774 17.0333 -1.2
368 1 1.66236 1.62777 19.6681 -1.2
369 1 1.66236 12.0818 18.7099 -1.2
370 1 9.65798 0.424141 19.1819 -1.2
371 3 5.09925 2.20077 18.7582 1.2
372 3 7.92729 0.826758 18.1681 1.2
373 2 6.05791 0.0646423 20.0872 2.4
374 1 6.03649 12.3361 21.5865 -1.2
375 1 6.76161 11.9857 18.9517 -1.2
376 1 6.76161 1.53172 19.91 -1.2
377 1 4.55873 0.322479 19.4379 -1.2
378 3 5.09925 4.97929 19.8616 1.2
379 3 2.27121 3.57478 19.3483 1.2
380 2 4.14059 4.33689 17.4292 2.4
381 1 4.16201 4.93232 15.9299 -1.2
382 1 3.43689 2.86982 17.6065 -1.2
383 1 3.43689 5.28269 18.5647 -1.2
384 1 5.63977 4.07906 18.0785 -1.2
385 3 7.37046 0.976082 25.8921 1.2
386 2 9.23984 1.96676 23.3974 2.4
387 1 9.26126 1.37134 24.8968 -1.2
388 1 8.53614 3.43384 23.2202 -1.2
389 1 8.53614 1.02097 22.262 -1.2
390 1 0.540521 2.2246 22.7482 -1.2
391 3 2.82804 12.7867 20.4517 1.2
392 2 0.958659 11.7961 22.9464 2.4
393 1 0.937242 12.3915 21.447 -1.2
394 1 1.66236 12.7418 24.0818 -1.2
395 1 1.66236 10.329 23.1236 -1.2
396 1 9.65798 11.5382 23.5956 -1.2
397 3 5.09925 0.447972 23.1719 1.2
398 3 7.92729 11.9408 22.5818 1.2
399 2 6.05791 11.1787 24.5009 2.4
400 1 6.03649 10.5833 26.0002 -1.2
401 1 6.76161 10.2329 23.3654 -1.2
402 1 6.76161 12.6458 24.3237 -1.2
403 1 4.55873 11.4366 23.8516 -1.2
404 3 5.09925 3.22649 24.2753 1.2
405 3 2.27121 1.82198 23.762 1.2
406 2 4.14059 2.5841 21.8429 2.4
407 1 4.16201 3.17952 20.3436 -1.2
408 1 3.43689 1.11702 22.0201 -1.2
409 1 3.43689 3.52989 22.9784 -1.2
410 1 5.63977 2.32626 22.4922 -1.2
411 3 7.37046 12.0902 30.3058 1.2
412 2 9.23984 0.213966 27.8111 2.4
413 1 9.26126 12.4854 29.3105 -1.2
414 1 8.53614 1.68104 27.6339 -1.2
415 1 8.53614 12.135 26.6757 -1.2
416 1 0.540521 0.471803 27.1619 -1.2
417 3 2.82804 11.0339 24.8654 1.2
418 2 0.958659 10.0433 27.3601 2.4
419 1 0.937242 10.6387 25.8607 -1.2
420 1 1.66236 10.989 28.4955 -1.2
421 1 1.66236 8.57618 27.5373 -1.2
422 1 9.65798 9.78542 28.0093 -1.2
423 3 5.09925 11.562 27.5856 1.2
424 3 7.92729 10.188 26.9955 1.2
425 2 6.05791 9.42592 28.9146 2.4
426 1 6.03649 8.83049 30.4139 -1.2
427 1 6.76161 8.48013 27.7791 -1.2
428 1 6.76161 10.893 28.7373 -1.2
429 1 4.55873 9.68376 28.2653 -1.2
430 3 5.09925 1.47369 28.689 1.2
431 3 2.27121 0.0691853 28.1757 1.2
432 2 4.14059 0.831301 26.2566 2.4
433 1 4.16201 1.42673 24.7573 -1.2
434 1 3.43689 12.2311 26.4338 -1.2
435 1 3.43689 1.77709 27.3921 -1.2
436 1 5.63977 0.573465 26.9059 -1.2
437 3 7.37046 10.3374 34.7195 1.2
438 2 9.23984 11.328 32.2248 2.4
439 1 9.26126 10.7326 33.7242 -1.2
440 1 8.53614 12.7951 32.0476 -1.2
441 1 8.53614 10.3822 31.0894 -1.2
442 1 0.540521 11.5859 31.5756 -1.2
443 3 2.82804 9.28114 29.2791 1.2
444 2 0.958659 8.29046 31.7738 2.4
445 1 0.937242 8.88588 30.2744 -1.2
446 1 1.66236 9.23625 32.9092 -1.2
447 1 1.66236 6.82338 31.951 -1.2
448 1 9.65798 8.03262 32.423 -1.2
449 3 5.09925 9.80925 31.9993 1.2
450 3 7.92729 8.43524 31.4092 1.2
451 2 6.05791 7.67312 33.3283 2.4
452 1 6.03649 7.0777 34.8276 -1.2
453 1 6.76161 6.72733 32.1928 -1.2
454 1 6.76161 9.1402 33.151 -1.2
455 1 4.55873 7.93096 32.679 -1.2
456 3 5.09925 12.5878 33.1027 1.2
457 3 2.27121 11.1833 32.5894 1.2
458 2 4.14059 11.9454 30.6703 2.4
459 1 4.16201 12.5408 29.171 -1.2
460 1 3.43689 10.4783 30.8475 -1.2
461 1 3.43689 0.0242966 31.8058 -1.2
462 1 5.63977 11.6875 31.3196 -1.2
463 3 7.37046 8.58456 39.1331 1.2
464 2 9.23984 9.57524 36.6385 2.4
465 1 9.26126 8.97982 38.1379 -1.2
466 1 8.53614 11.0423 36.4613 -1.2
467 1 8.53614 8.62945 35.5031 -1.2
468 1 0.540521 9.83308 35.9893 -1.2
469 3 2.82804 7.52834 33.6928 1.2
470 2 0.958659 6.53766 36.1874 2.4
471 1 0.937242 7.13309 34.6881 -1.2
472 1 1.66236 5.07059 36.3647 -1.2
473 1 1.66236 7.48345 37.3229 -1.2
474 1 9.65798 6.27983 36.8367 -1.2
475 3 5.09925 8.05645 36.413 1.2
476 3 7.92729 6.68244 35.8229 1.2
477 2 6.05791 5.92033 37.7419 2.4
478 1 6.03649 5.3249 39.2413 -1.2
479 1 6.76161 4.97453 36.6065 -1.2
480 1 6.76161 7.3874 37.5647 -1.2
481 1 4.55873 6.17816 37.0927 -1.2
482 3 5.09925 10.835 37.5164 1.2
483 3 2.27121 9.43046 37.0031 1.2
484 2 4.14059 10.1926 35.084 2.4
485 1 4.16201 10.788 33.5847 -1.2
486 1 3.43689 8.7255 35.2612 -1.2
487 1 3.43689 11.1384 36.2194 -1.2
488 1 5.63977 9.93474 35.7333 -1.2
489 3 7.37046 6.83177 43.5468 1.2
490 2 9.23984 7.82245 41.0522 2.4
491 1 9.26126 7.22702 42.5516 -1.2
492 1 8.53614 9.28952 40.875 -1.2
493 1 8.53614 6.87666 39.9168 -1.2
494 1 0.540521 8.08028 40.403 -1.2
495 3 2.82804 5.77555 38.1065 1.2
496 2 0.958659 4.78487 40.6011 2.4
497 1 0.937242 5.38029 39.1018 -1.2
498 1 1.66236 3.31779 40.7784 -1.2
499 1 1.66236 5.73066 41.7366 -1.2
500 1 9.65798 4.52703 41.2504 -1.2
501 3 5.09925 6.30366 40.8267 1.2
502 3 7.92729 4.92965 40.2366 1.2
503 2 6.05791 4.16753 42.1556 2.4
504 1 6.03649 3.57211 43.655 -1.2
505 1 6.76161 3.22174 41.0202 -1.2
506 1 6.76161 5.6346 41.9784 -1.2
507 1 4.55873 4.42537 41.5064 -1.2
508 3 5.09925 9.08217 41.9301 1.2
509 3 2.27121 7.67767 41.4168 1.2
510 2 4.14059 8.43978 39.4977 2.4
511 1 4.16201 9.03521 37.9984 -1.2
512 1 3.43689 6.97271 39.6749 -1.2
513 1 3.43689 9.38557 40.6331 -1.2
514 1 5.63977 8.18195 40.147 -1.2
515 3 2.82804 4.02275 42.5202 1.2
516 2 4.14059 6.68699 43.9114 2.4
517 1 4.16201 7.28241 42.4121 -1.2
518 1 3.43689 5.21991 44.0886 -1.2
519 1 3.43689 7.63278 45.0468 -1.2
520 1 5.63977 6.42915 44.5607 -1.2
521 3 0 2.77852 1.10342 1.2
522 3 0 1.02572 5.51712 1.2
523 3 0 12.1398 9.93081 1.2
524 3 0 10.387 14.3445 1.2
525 3 0 8.6342 18.7582 1.2
526 3 0 6.88141 23.1719 1.2
527 3 0 5.12861 27.5856 1.2
528 3 0 3.37581 31.9993 1.2
529 3 0 1.62302 36.413 1.2
530 3 0 12.7371 40.8267 1.2
531 3 0 5.55704 2.20685 1.2
532 3 0 8.33555 3.31027 1.2
533 3 0 3.80424 6.62054 1.2
534 3 0 6.58276 7.72397 1.2
535 3 0 2.05144 11.0342 1.2
536 3 0 4.82996 12.1377 1.2
537 3 0 0.298648 15.4479 1.2
538 3 0 3.07717 16.5514 1.2
539 3 0 11.4127 19.8616 1.2
540 3 0 1.32437 20.9651 1.2
541 3 0 9.65992 24.2753 1.2
542 3 0 12.4384 25.3787 1.2
543 3 0 7.90713 28.689 1.2
544 3 0 10.6856 29.7924 1.2
545 3 0 6.15433 33.1027 1.2
546 3 0 8.93285 34.2061 1.2
547 3 0 4.40154 37.5164 1.2
548 3 0 7.18005 38.6198 1.2
549 3 0 2.64874 41.9301 1.2
550 3 0 5.42726 43.0335 1.2
551 3 0 11.1141 4.4137 1.2
552 3 0 9.36128 8.82739 1.2
553 3 0 7.60848 13.2411 1.2
554 3 0 5.85568 17.6548 1.2
555 3 0 4.10289 22.0685 1.2
556 3 0 2.35009 26.4822 1.2
557 3 0 0.597296 30.8959 1.2
558 3 0 11.7114 35.3096 1.2
559 3 0 9.95857 39.7233 1.2
560 3 0 0 1.5377e-08 1.2
561 3 7.37046 3.78593 87.6572 1.2
562 2 6.05791 1.12169 89.0484 2.4
563 1 6.03649 0.526266 87.549 -1.2
564 1 6.76161 0.175899 90.1838 -1.2
565 1 6.76161 2.58876 89.2256 -1.2
566 1 4.55873 1.37953 89.6976 -1.2
567 3 7.37046 2.03313 83.2435 1.2
568 2 9.23984 3.02381 85.7381 2.4
569 1 9.26126 2.42839 84.2388 -1.2
570 1 8.53614 2.07802 86.8735 -1.2
571 1 8.53614 4.49088 85.9153 -1.2
572 1 0.540521 3.28165 86.3873 -1.2
573 3 2.82804 0.97691 88.6838 1.2
574 2 0.958659 12.8531 86.1892 2.4
575 1 0.937242 0.581654 87.6885 -1.2
576 1 1.66236 0.932021 85.0538 -1.2
577 1 1.66236 11.386 86.012 -1.2
578 1 9.65798 12.5953 85.5399 -1.2
579 3 5.09925 1.50502 85.9636 1.2
580 3 7.92729 0.13101 86.5537 1.2
581 2 6.05791 12.2358 84.6347 2.4
582 1 6.03649 11.6403 83.1353 -1.2
583 1 6.76161 11.29 85.7701 -1.2
584 1 6.76161 0.835968 84.8119 -1.2
585 1 4.55873 12.4936 85.2839 -1.2
586 3 5.09925 4.28354 84.8602 1.2
587 3 2.27121 2.87903 85.3735 1.2
588 2 4.14059 3.64115 87.2926 2.4
589 1 4.16201 4.23657 88.7919 -1.2
590 1 3.43689 2.17407 87.1154 -1.2
591 1 3.43689 4.58694 86.1572 -1.2
592 1 5.63977 3.38331 86.6433 -1.2
593 3 7.37046 0.280334 78.8298 1.2
594 2 9.23984 1.27101 81.3244 2.4
595 1 9.26126 0.67559 79.8251 -1.2
596 1 8.53614 0.325223 82.4598 -1.2
597 1 8.53614 2.73809 81.5016 -1.2
598 1 0.540521 1.52885 81.9737 -1.2
599 3 2.82804 12.091 84.2701 1.2
600 2 0.958659 11.1003 81.7755 2.4
601 1 0.937242 11.6957 83.2748 -1.2
602 1 1.66236 12.0461 80.6401 -1.2
603 1 1.66236 9.63323 81.5983 -1.2
604 1 9.65798 10.8425 81.1262 -1.2
605 3 5.09925 12.6191 81.5499 1.2
606 3 7.92729 11.2451 82.1401 1.2
607 2 6.05791 10.483 80.221 2.4
608 1 6.03649 9.88754 78.7216 -1.2
609 1 6.76161 9.53718 81.3564 -1.2
610 1 6.76161 11.95 80.3982 -1.2
611 1 4.55873 10.7408 80.8702 -1.2
612 3 5.09925 2.53074 80.4465 1.2
613 3 2.27121 1.12623 80.9598 1.2
614 2 4.14059 1.88835 82.8789 2.4
615 1 4.16201 2.48377 84.3782 -1.2
616 1 3.43689 0.421276 82.7017 -1.2
617 1 3.43689 2.83414 81.7435 -1.2
618 1 5.63977 1.63051 82.2296 -1.2
619 3 7.37046 11.3944 74.4161 1.2
620 2 9.23984 12.3851 76.9107 2.4
621 1 9.26126 11.7897 75.4114 -1.2
622 1 8.53614 11.4393 78.0461 -1.2
623 1 8.53614 0.985292 77.0879 -1.2
624 1 0.540521 12.6429 77.56 -1.2
625 3 2.82804 10.3382 79.8564 1.2
626 2 0.958659 9.34751 77.3618 2.4
627 1 0.937242 9.94293 78.8611 -1.2
628 1 1.66236 7.88043 77.1846 -1.2
629 1 1.66236 10.2933 76.2264 -1.2
630 1 9.65798 9.08967 76.7125 -1.2
631 3 5.09925 10.8663 77.1362 1.2
632 3 7.92729 9.49229 77.7264 1.2
633 2 6.05791 8.73017 75.8073 2.4
634 1 6.03649 8.13475 74.3079 -1.2
635 1 6.76161 7.78438 76.9427 -1.2
636 1 6.76161 10.1972 75.9845 -1.2
637 1 4.55873 8.98801 76.4565 -1.2
638 3 5.09925 0.777946 76.0328 1.2
639 3 2.27121 12.2403 76.5461 1.2
640 2 4.14059 0.135553 78.4652 2.4
641 1 4.16201 0.730978 79.9645 -1.2
642 1 3.43689 11.5353 78.288 -1.2
643 1 3.43689 1.08135 77.3298 -1.2
644 1 5.63977 12.7446 77.816 -1.2
645 3 7.37046 9.64161 70.0024 1.2
646 2 9.23984 10.6323 72.497 2.4
647 1 9.26126 10.0369 70.9977 -1.2
648 1 8.53614 9.6865 73.6324 -1.2
649 1 8.53614 12.0994 72.6742 -1.2
650 1 0.540521 10.8901 73.1463 -1.2
651 3 2.82804 8.58539 75.4427 1.2
652 2 0.958659 7.59471 72.9481 2.4
653 1 0.937242 8.19013 74.4474 -1.2
654 1 1.66236 8.5405 71.8127 -1.2
655 1 1.66236 6.12764 72.7709 -1.2
656 1 9.65798 7.33687 72.2988 -1.2
657 3 5.09925 9.1135 72.7225 1.2
658 3 7.92729 7.73949 73.3127 1.2
659 2 6.05791 6.97738 71.3936 2.4
660 1 6.03649 6.38195 69.8943 -1.2
661 1 6.76161 6.03158 72.529 -1.2
662 1 6.76161 8.44445 71.5708 -1.2
663 1 4.55873 7.23521 72.0428 -1.2
664 3 5.09925 11.892 71.6191 1.2
665 3 2.27121 10.4875 72.1324 1.2
666 2 4.14059 11.2496 74.0515 2.4
667 1 4.16201 11.8451 75.5508 -1.2
668 1 3.43689 9.78255 73.8743 -1.2
669 1 3.43689 12.1954 72.9161 -1.2
670 1 5.63977 10.9918 73.4023 -1.2
671 3 7.37046 7.88881 65.5887 1.2
672 2 9.23984 8.8795 68.0833 2.4
673 1 9.26126 8.28407 66.584 -1.2
674 1 8.53614 10.3466 68.2605 -1.2
675 1 8.53614 7.9337 69.2187 -1.2
676 1 0.540521 9.13733 68.7326 -1.2
677 3 2.82804 6.83259 71.029 1.2
678 2 0.958659 5.84191 68.5344 2.4
679 1 0.937242 6.43734 70.0337 -1.2
680 1 1.66236 4.37484 68.3572 -1.2
681 1 1.66236 6.78771 67.399 -1.2
682 1 9.65798 5.58408 67.8851 -1.2
683 3 5.09925 7.3607 68.3089 1.2
684 3 7.92729 5.98669 68.899 1.2
685 2 6.05791 5.22458 66.9799 2.4
686 1 6.03649 4.62915 65.4806 -1.2
687 1 6.76161 4.27879 68.1153 -1.2
688 1 6.76161 6.69165 67.1571 -1.2
689 1 4.55873 5.48242 67.6291 -1.2
690 3 5.09925 10.1392 67.2054 1.2
691 3 2.27121 8.73471 67.7187 1.2
692 2 4.14059 9.49683 69.6378 2.4
693 1 4.16201 10.0923 71.1371 -1.2
694 1 3.43689 8.02976 69.4606 -1.2
695 1 3.43689 10.4426 68.5024 -1.2
696 1 5.63977 9.23899 68.9886 -1.2
697 3 7.37046 6.13602 61.175 1.2
698 2 9.23984 7.1267 63.6696 2.4
699 1 9.26126 6.53127 62.1703 -1.2
700 1 8.53614 6.18091 64.805 -1.2
701 1 8.53614 8.59377 63.8468 -1.2
702 1 0.540521 7.38454 64.3189 -1.2
703 3 2.82804 5.0798 66.6153 1.2
704 2 0.958659 4.08912 64.1207 2.4
705 1 0.937242 4.68454 65.62 -1.2
706 1 1.66236 5.03491 62.9853 -1.2
707 1 1.66236 2.62204 63.9435 -1.2
708 1 9.65798 3.83128 63.4714 -1.2
709 3 5.09925 5.60791 63.8952 1.2
710 3 7.92729 4.2339 64.4853 1.2
711 2 6.05791 3.47178 62.5662 2.4
712 1 6.03649 2.87636 61.0669 -1.2
713 1 6.76161 4.93886 62.7434 -1.2
714 1 6.76161 2.52599 63.7016 -1.2
715 1 4.55873 3.72962 63.2154 -1.2
716 3 5.09925 8.38643 62.7917 1.2
717 3 2.27121 6.98192 63.305 1.2
718 2 4.14059 7.74403 65.2241 2.4
719 1 4.16201 8.33946 66.7235 -1.2
720 1 3.43689 6.27696 65.0469 -1.2
721 1 3.43689 8.68983 64.0887 -1.2
722 1 5.63977 7.4862 64.5749 -1.2
723 3 7.37046 4.38322 56.7613 1.2
724 2 9.23984 5.3739 59.2559 2.4
725 1 9.26126 4.77848 57.7566 -1.2
726 1 8.53614 6.84098 59.4331 -1.2
727 1 8.53614 4.42811 60.3913 -1.2
728 1 0.540521 5.63174 59.9052 -1.2
729 3 2.82804 3.327 62.2016 1.2
730 2 0.958659 2.33632 59.707 2.4
731 1 0.937242 2.93175 61.2063 -1.2
732 1 1.66236 3.28211 58.5716 -1.2
733 1 1.66236 0.869248 59.5298 -1.2
734 1 9.65798 2.07848 59.0577 -1.2
735 3 5.09925 3.85511 59.4815 1.2
736 3 7.92729 2.4811 60.0716 1.2
737 2 6.05791 1.71899 58.1525 2.4
738 1 6.03649 1.12356 56.6532 -1.2
739 1 6.76161 0.773195 59.2879 -1.2
740 1 6.76161 3.18606 58.3297 -1.2
741 1 4.55873 1.97682 58.8018 -1.2
742 3 5.09925 6.63363 58.378 1.2
743 3 2.27121 5.22912 58.8914 1.2
744 2 4.14059 5.99124 60.8104 2.4
745 1 4.16201 6.58666 62.3098 -1.2
746 1 3.43689 4.52416 60.6332 -1.2
747 1 3.43689 6.93703 59.675 -1.2
748 1 5.63977 5.7334 60.1612 -1.2
749 3 7.37046 2.63043 52.3476 1.2
750 2 9.23984 3.62111 54.8422 2.4
751 1 9.26126 3.02568 53.3429 -1.2
752 1 8.53614 2.67531 55.9777 -1.2
753 1 8.53614 5.08818 55.0194 -1.2
754 1 0.540521 3.87894 55.4915 -1.2
755 3 2.82804 1.57421 57.7879 1.2
756 2 0.958659 0.583525 55.2933 2.4
757 1 0.937242 1.17895 56.7926 -1.2
758 1 1.66236 1.52932 54.1579 -1.2
759 1 1.66236 11.9833 55.1161 -1.2
760 1 9.65798 0.325689 54.6441 -1.2
761 3 5.09925 2.10232 55.0678 1.2
762 3 7.92729 0.728306 55.6579 1.2
763 2 6.05791 12.8331 53.7388 2.4
764 1 6.03649 12.2376 52.2395 -1.2
765 1 6.76161 1.43326 53.916 -1.2
766 1 6.76161 11.8873 54.8742 -1.2
767 1 4.55873 0.224026 54.3881 -1.2
768 3 5.09925 4.88083 53.9643 1.2
769 3 2.27121 3.47633 54.4777 1.2
770 2 4.14059 4.23844 56.3967 2.4
771 1 4.16201 4.83387 57.8961 -1.2
772 1 3.43689 5.18423 55.2613 -1.2
773 1 3.43689 2.77137 56.2195 -1.2
774 1 5.63977 3.98061 55.7475 -1.2
775 3 7.37046 0.87763 47.9339 1.2
776 2 9.23984 1.86831 50.4285 2.4
777 1 9.26126 1.27289 48.9292 -1.2
778 1 8.53614 3.33538 50.6057 -1.2
779 1 8.53614 0.922518 51.564 -1.2
780 1 0.540521 2.12615 51.0778 -1.2
781 3 2.82804 12.6883 53.3742 1.2
782 2 0.958659 11.6976 50.8796 2.4
783 1 0.937242 12.293 52.3789 -1.2
784 1 1.66236 12.6434 49.7442 -1.2
785 1 1.66236 10.2305 50.7024 -1.2
786 1 9.65798 11.4398 50.2304 -1.2
787 3 5.09925 0.34952 50.6541 1.2
788 3 7.92729 11.8424 51.2442 1.2
789 2 6.05791 11.0803 49.3251 2.4
790 1 6.03649 10.4848 47.8258 -1.2
791 1 6.76161 10.1345 50.4605 -1.2
792 1 6.76161 12.5473 49.5023 -1.2
793 1 4.55873 11.3381 49.9744 -1.2
794 3 5.09925 3.12804 49.5506 1.2
795 3 2.27121 1.72353 50.064 1.2
796 2 4.14059 2.48565 51.983 2.4
797 1 4.16201 3.08107 53.4824 -1.2
798 1 3.43689 1.01857 51.8058 -1.2
799 1 3.43689 3.43144 50.8476 -1.2
800 1 5.63977 2.22781 51.3338 -1.2
801 2 9.23984 0.115514 46.0148 2.4
802 1 9.26126 12.387 44.5155 -1.2
803 1 8.53614 1.58259 46.192 -1.2
804 1 8.53614 12.0366 47.1503 -1.2
805 1 0.540521 0.37335 46.6641 -1.2
806 3 2.82804 10.9355 48.9605 1.2
807 2 0.958659 9.9448 46.4659 2.4
808 1 0.937242 10.5402 47.9652 -1.2
809 1 1.66236 10.8906 45.3305 -1.2
810 1 1.66236 8.47773 46.2887 -1.2
811 1 9.65798 9.68697 45.8167 -1.2
812 3 5.09925 11.4636 46.2404 1.2
813 3 7.92729 10.0896 46.8305 1.2
814 3 5.09925 1.37524 45.137 1.2
815 3 2.27121 12.8376 45.6503 1.2
816 2 4.14059 0.732849 47.5693 2.4
817 1 4.16201 1.32827 49.0687 -1.2
818 1 3.43689 12.1326 47.3921 -1.2
819 1 3.43689 1.67864 46.4339 -1.2
820 1 5.63977 0.475013 46.9201 -1.2
821 3 7.37046 9.34296 85.4503 1.2
822 2 9.23984 10.3336 87.9449 2.4
823 1 9.26126 9.73822 86.4456 -1.2
824 1 8.53614 9.38785 89.0804 -1.2
825 1 8.53614 11.8007 88.1222 -1.2
826 1 0.540521 10.5915 88.5942 -1.2
827 2 0.958659 7.29606 88.396 2.4
828 1 0.937242 7.89149 89.8954 -1.2
829 1 1.66236 8.24185 87.2606 -1.2
830 1 1.66236 5.82899 88.2188 -1.2
831 1 9.65798 7.03823 87.7468 -1.2
832 3 5.09925 8.81485 88.1705 1.2
833 3 7.92729 7.44084 88.7606 1.2
834 2 6.05791 6.67873 86.8415 2.4
835 1 6.03649 6.0833 85.3422 -1.2
836 1 6.76161 5.73294 87.9769 -1.2
837 1 6.76161 8.1458 87.0187 -1.2
838 1 4.55873 6.93656 87.4908 -1.2
839 3 5.09925 11.5934 87.0671 1.2
840 3 2.27121 10.1889 87.5804 1.2
841 3 7.37046 7.59017 81.0366 1.2
842 2 9.23984 8.58085 83.5312 2.4
843 1 9.26126 7.98542 82.0319 -1.2
844 1 8.53614 10.0479 83.7085 -1.2
845 1 8.53614 7.63506 84.6667 -1.2
846 1 0.540521 8.83868 84.1805 -1.2
847 3 2.82804 6.53395 86.4769 1.2
848 2 0.958659 5.54327 83.9823 2.4
849 1 0.937242 6.13869 85.4817 -1.2
850 1 1.66236 4.07619 83.8051 -1.2
851 1 1.66236 6.48906 82.8469 -1.2
852 1 9.65798 5.28543 83.3331 -1.2
853 3 5.09925 7.06206 83.7568 1.2
854 3 7.92729 5.68805 84.3469 1.2
855 2 6.05791 4.92593 82.4278 2.4
856 1 6.03649 4.33051 80.9285 -1.2
857 1 6.76161 3.98014 83.5632 -1.2
858 1 6.76161 6.393 82.605 -1.2
859 1 4.55873 5.18377 83.0771 -1.2
860 3 5.09925 9.84058 82.6534 1.2
861 3 2.27121 8.43607 83.1667 1.2
862 2 4.14059 9.19818 85.0858 2.4
863 1 4.16201 9.79361 86.5851 -1.2
864 1 3.43689 10.144 83.9503 -1.2
865 1 3.43689 7.73111 84.9085 -1.2
866 1 5.63977 8.94035 84.4365 -1.2
867 3 7.37046 5.83737 76.6229 1.2
868 2 9.23984 6.82805 79.1176 2.4
869 1 9.26126 6.23263 77.6182 -1.2
870 1 8.53614 5.88226 80.253 -1.2
871 1 8.53614 8.29512 79.2948 -1.2
872 1 0.540521 7.08589 79.7668 -1.2
873 3 2.82804 4.78115 82.0633 1.2