ITEM: TIMESTEP
0
ITEM: NUMBER OF ATOMS
1120
ITEM: BOX BOUNDS xy xz yz pp pp pp
0	15.1985	1.5
0	15.2669	3.5
0	90.2739	2.4
ITEM: ATOMS id type element xu yu zu q Disorder
1 1 Mg 7.37046 4.18303 1.61674 1.2 0.692665
2 2 Si 6.05791 1.51879 0.22554 2.4 0.976088
3 3 O 6.03649 0.923366 1.72487 -1.2 0.947448
4 3 O 6.76161 0.572999 89.364 -1.2 0.992864
5 3 O 6.76161 2.98586 0.04833 -1.2 0.927932
6 3 O 4.55873 1.77663 89.8502 -1.2 0.787714
7 1 Mg 7.37046 2.43023 6.03043 1.2 0.396115
8 2 Si 9.23984 3.42091 3.53581 2.4 0.57369
9 3 O 9.26126 2.82549 5.03514 -1.2 0.61788
10 3 O 8.53614 2.47512 2.40039 -1.2 0.785444
11 3 O 8.53614 4.88798 3.3586 -1.2 0.330651
12 3 O 0.540521 3.67875 2.88656 -1.2 0.804051
13 1 Mg 2.82804 1.37401 0.590111 1.2 0.718231
14 2 Si 0.958659 0.383329 3.08473 2.4 0.647152
15 3 O 0.937242 0.978754 1.5854 -1.2 0.914904
16 3 O 1.66236 1.32912 4.22015 -1.2 0.226659
17 3 O 1.66236 11.7831 3.26194 -1.2 0.815782
18 3 O 9.65798 0.125493 3.73399 -1.2 0.243413
19 1 Mg 5.09925 1.90212 3.31027 1.2 0.51325
20 1 Mg 7.92729 0.52811 2.72016 1.2 0.677326
21 2 Si 6.05791 12.6329 4.63924 2.4 0.485597
22 3 O 6.03649 12.0374 6.13857 -1.2 0.193067
23 3 O 6.76161 11.6871 3.50381 -1.2 0.889233
24 3 O 6.76161 1.23307 4.46203 -1.2 0.211885
25 3 O 4.55873 0.0238309 3.98998 -1.2 0.261654
26 1 Mg 5.09925 4.68064 4.4137 1.2 0.187729
27 1 Mg 2.27121 3.27613 3.90038 1.2 0.467543
28 2 Si 4.14059 4.03825 1.98131 2.4 0.716056
29 3 O 4.16201 4.63367 0.481976 -1.2 0.835093
30 3 O 3.43689 2.57117 2.15852 -1.2 0.820199
31 3 O 3.43689 4.98404 3.11673 -1.2 0.4584
32 3 O 5.63977 3.78041 2.63056 -1.2 0.59688
33 1 Mg 7.37046 0.677434 10.4441 1.2 0.542564
34 2 Si 9.23984 1.66811 7.94951 2.4 0.325512
35 3 O 9.26126 1.07269 9.44884 -1.2 0
36 3 O 8.53614 0.722323 6.81408 -1.2 0.505174
37 3 O 8.53614 3.13519 7.7723 -1.2 0.163469
38 3 O 0.540521 1.92595 7.30025 -1.2 0.356181
39 1 Mg 2.82804 12.4881 5.00381 1.2 0.62592
40 2 Si 0.958659 11.4974 7.49843 2.4 0.357449
41 3 O 0.937242 12.0928 5.99909 -1.2 0.144399
42 3 O 1.66236 12.4432 8.63385 -1.2 0.497384
43 3 O 1.66236 10.0303 7.67564 -1.2 0.546533
44 3 O 9.65798 11.2396 8.14768 -1.2 0.428959
45 1 Mg 5.09925 0.149324 7.72397 1.2 0.304012
46 1 Mg 7.92729 11.6422 7.13386 1.2 0.399471
47 2 Si 6.05791 10.8801 9.05293 2.4 0.153949
48 3 O 6.03649 10.2846 10.5523 -1.2 0
49 3 O 6.76161 9.93428 7.91751 -1.2 0.385443
50 3 O 6.76161 12.3471 8.87572 -1.2 0.663849
51 3 O 4.55873 11.1379 8.40368 -1.2 0.622104
52 1 Mg 5.09925 2.92784 8.82739 1.2 0.392703
53 1 Mg 2.27121 1.52333 8.31408 1.2 0.36937
54 2 Si 4.14059 2.28545 6.395 2.4 0.19783
55 3 O 4.16201 2.88087 4.89567 -1.2 0.222777
56 3 O 3.43689 0.818376 6.57221 -1.2 0.643755
57 3 O 3.43689 3.23124 7.53043 -1.2 0.48267
58 3 O 5.63977 2.02761 7.04426 -1.2 0.595449
59 1 Mg 7.37046 11.7915 14.8578 1.2 0.376423
60 2 Si 9.23984 12.7822 12.3632 2.4 0.390402
61 3 O 9.26126 12.1868 13.8625 -1.2 0.697155
62 3 O 8.53614 11.8364 11.2278 -1.2 0.0826699
63 3 O 8.53614 1.38239 12.186 -1.2 0.550644
64 3 O 0.540521 0.173155 11.7139 -1.2 0.705214
65 1 Mg 2.82804 10.7353 9.4175 1.2 0.388264
66 2 Si 0.958659 9.74461 11.9121 2.4 0.247374
67 3 O 0.937242 10.34 10.4128 -1.2 0
68 3 O 1.66236 8.27753 12.0893 -1.2 0
69 3 O 1.66236 10.6904 13.0475 -1.2 0.354643
70 3 O 9.65798 9.48677 12.5614 -1.2 0.321486
71 1 Mg 5.09925 11.2634 12.1377 1.2 0.236203
72 1 Mg 7.92729 9.88939 11.5476 1.2 0.318688
73 2 Si 6.05791 9.12727 13.4666 2.4 0.140539
74 3 O 6.03649 8.53185 14.966 -1.2 0.417432
75 3 O 6.76161 8.18148 12.3312 -1.2 0.0365362
76 3 O 6.76161 10.5943 13.2894 -1.2 0.450457
77 3 O 4.55873 9.38511 12.8174 -1.2 0.363763
78 1 Mg 5.09925 1.17505 13.2411 1.2 0.364981
79 1 Mg 2.27121 12.6374 12.7278 1.2 0.502434
80 2 Si 4.14059 0.532653 10.8087 2.4 0.389985
81 3 O 4.16201 1.12808 9.30937 -1.2 0
82 3 O 3.43689 11.9324 10.9859 -1.2 0
83 3 O 3.43689 1.47845 11.9441 -1.2 0.625103
84 3 O 5.63977 0.274817 11.458 -1.2 0.720064
85 1 Mg 7.37046 10.0387 19.2715 1.2 0.302596
86 2 Si 9.23984 11.0294 16.7769 2.4 0.263039
87 3 O 9.26126 10.434 18.2762 -1.2 0.586059
88 3 O 8.53614 10.0836 15.6415 -1.2 0
89 3 O 8.53614 12.4965 16.5997 -1.2 0.544652
90 3 O 0.540521 11.2872 16.1276 -1.2 0
91 1 Mg 2.82804 8.98249 13.8312 1.2 0.254397
92 2 Si 0.958659 7.99181 16.3258 2.4 0.133631
93 3 O 0.937242 8.58723 14.8265 -1.2 0.353259
94 3 O 1.66236 8.9376 17.4612 -1.2 0.219252
95 3 O 1.66236 6.52474 16.503 -1.2 0
96 3 O 9.65798 7.73397 16.9751 -1.2 0.354713
97 1 Mg 5.09925 9.5106 16.5514 1.2 0.217442
98 1 Mg 7.92729 8.13659 15.9612 1.2 0.216467
99 2 Si 6.05791 7.37448 17.8803 2.4 0.171384
100 3 O 6.03649 6.77905 19.3797 -1.2 0.301035
101 3 O 6.76161 6.42868 16.7449 -1.2 0
102 3 O 6.76161 8.84155 17.7031 -1.2 0.527609
103 3 O 4.55873 7.63231 17.2311 -1.2 0.312085
104 1 Mg 5.09925 12.2891 17.6548 1.2 0.394783
105 1 Mg 2.27121 10.8846 17.1415 1.2 0.315901
106 2 Si 4.14059 11.6467 15.2224 2.4 0.314775
107 3 O 4.16201 12.2422 13.7231 -1.2 0.631961
108 3 O 3.43689 10.1797 15.3996 -1.2 0
109 3 O 3.43689 12.5925 16.3578 -1.2 0
110 3 O 5.63977 11.3889 15.8716 -1.2 0.440219
111 1 Mg 7.37046 8.28591 23.6852 1.2 0.215963
112 2 Si 9.23984 9.2766 21.1906 2.4 0.191871
113 3 O 9.26126 8.68117 22.6899 -1.2 0.215378
114 3 O 8.53614 10.7437 21.0134 -1.2 0
115 3 O 8.53614 8.3308 20.0552 -1.2 0.0612167
116 3 O 0.540521 9.53443 20.5413 -1.2 0.5236
117 1 Mg 2.82804 7.22969 18.2449 1.2 0.209364
118 2 Si 0.958659 6.23901 20.7395 2.4 0.175681
119 3 O 0.937242 6.83444 19.2402 -1.2 0.271742
120 3 O 1.66236 4.77194 20.9167 -1.2 0
121 3 O 1.66236 7.18481 21.8749 -1.2 0.0713374
122 3 O 9.65798 5.98118 21.3888 -1.2 0.31246
123 1 Mg 5.09925 7.7578 20.9651 1.2 0.0768465
124 1 Mg 7.92729 6.38379 20.3749 1.2 0.194291
125 2 Si 6.05791 5.62168 22.294 2.4 0.208916
126 3 O 6.03649 5.02625 23.7933 -1.2 0.32695
127 3 O 6.76161 4.67589 21.1586 -1.2 0
128 3 O 6.76161 7.08875 22.1168 -1.2 0.0798471
129 3 O 4.55873 5.87952 21.6448 -1.2 0.289541
130 1 Mg 5.09925 10.5363 22.0685 1.2 0.407572
131 1 Mg 2.27121 9.13181 21.5552 1.2 0.219356
132 2 Si 4.14059 9.89393 19.6361 2.4 0.288112
133 3 O 4.16201 10.4894 18.1368 -1.2 0.271185
134 3 O 3.43689 8.42686 19.8133 -1.2 0
135 3 O 3.43689 10.8397 20.7715 -1.2 0
136 3 O 5.63977 9.63609 20.2853 -1.2 0
137 1 Mg 7.37046 6.53312 28.0989 1.2 0.219003
138 2 Si 9.23984 7.5238 25.6043 2.4 0.203395
139 3 O 9.26126 6.92837 27.1036 -1.2 0.0181406
140 3 O 8.53614 6.57801 24.4689 -1.2 0.461278
141 3 O 8.53614 8.99087 25.4271 -1.2 0
142 3 O 0.540521 7.78164 24.955 -1.2 0.38405
143 1 Mg 2.82804 5.4769 22.6586 1.2 0.207493
144 2 Si 0.958659 4.48622 25.1532 2.4 0.178194
145 3 O 0.937242 5.08164 23.6539 -1.2 0.153715
146 3 O 1.66236 5.43201 26.2886 -1.2 0.465898
147 3 O 1.66236 3.01914 25.3304 -1.2 0
148 3 O 9.65798 4.22838 25.8025 -1.2 0.513628
149 1 Mg 5.09925 6.00501 25.3787 1.2 0.063083
150 1 Mg 7.92729 4.631 24.7886 1.2 0.230565
151 2 Si 6.05791 3.86888 26.7077 2.4 0.329238
152 3 O 6.03649 3.27346 28.207 -1.2 0.22553
153 3 O 6.76161 5.33596 26.5305 -1.2 0.429181
154 3 O 6.76161 2.92309 25.5723 -1.2 0
155 3 O 4.55873 4.12672 26.0585 -1.2 0.459913
156 1 Mg 5.09925 8.78353 26.4822 1.2 0.155909
157 1 Mg 2.27121 7.37902 25.9689 1.2 0.208246
158 2 Si 4.14059 8.14113 24.0498 2.4 0.252852
159 3 O 4.16201 8.73656 22.5505 -1.2 0.176602
160 3 O 3.43689 6.67406 24.227 -1.2 0.0815418
161 3 O 3.43689 9.08693 25.1852 -1.2 0
162 3 O 5.63977 7.8833 24.699 -1.2 0.349983
163 1 Mg 7.37046 4.78032 32.5126 1.2 0.234397
164 2 Si 9.23984 5.771 30.018 2.4 0.145938
165 3 O 9.26126 5.17558 31.5173 -1.2 0.176035
166 3 O 8.53614 7.23808 29.8408 -1.2 0
167 3 O 8.53614 4.82521 28.8826 -1.2 0.439462
168 3 O 0.540521 6.02884 29.3687 -1.2 0.2157
169 1 Mg 2.82804 3.7241 27.0723 1.2 0.265707
170 2 Si 0.958659 2.73342 29.5669 2.4 0.311947
171 3 O 0.937242 3.32885 28.0676 -1.2 0.167299
172 3 O 1.66236 3.67921 30.7023 -1.2 0.504598
173 3 O 1.66236 1.26635 29.7441 -1.2 0.71838
174 3 O 9.65798 2.47558 30.2162 -1.2 0.0184204
175 1 Mg 5.09925 4.25221 29.7924 1.2 0.243541
176 1 Mg 7.92729 2.8782 29.2023 1.2 0.280352
177 2 Si 6.05791 2.11609 31.1214 2.4 0.274477
178 3 O 6.03649 1.52066 32.6207 -1.2 0.693584
179 3 O 6.76161 1.17029 29.986 -1.2 0.0101195
180 3 O 6.76161 3.58316 30.9442 -1.2 0.0883428
181 3 O 4.55873 2.37392 30.4722 -1.2 0.436012
182 1 Mg 5.09925 7.03073 30.8959 1.2 0.00741509
183 1 Mg 2.27121 5.62622 30.3826 1.2 0.195168
184 2 Si 4.14059 6.38834 28.4635 2.4 0.156659
185 3 O 4.16201 6.98376 26.9641 -1.2 0.293893
186 3 O 3.43689 4.92126 28.6407 -1.2 0.448627
187 3 O 3.43689 7.33413 29.5989 -1.2 0
188 3 O 5.63977 6.1305 29.1127 -1.2 0.204705
189 1 Mg 7.37046 3.02753 36.9263 1.2 0.326827
190 2 Si 9.23984 4.01821 34.4317 2.4 0.207467
191 3 O 9.26126 3.42278 35.931 -1.2 0.446001
192 3 O 8.53614 3.07241 33.2963 -1.2 0.357385
193 3 O 8.53614 5.48528 34.2545 -1.2 0
194 3 O 0.540521 4.27604 33.7824 -1.2 0.290554
195 1 Mg 2.82804 1.97131 31.486 1.2 0.325025
196 2 Si 0.958659 0.980625 33.9806 2.4 0.384623
197 3 O 0.937242 1.57605 32.4813 -1.2 0.556714
198 3 O 1.66236 1.92642 35.116 -1.2 0
199 3 O 1.66236 12.3804 34.1578 -1.2 0.679716
200 3 O 9.65798 0.722789 34.6299 -1.2 0
201 1 Mg 5.09925 2.49942 34.2061 1.2 0.233484
202 1 Mg 7.92729 1.12541 33.616 1.2 0.374066
203 2 Si 6.05791 0.36329 35.5351 2.4 0.50294
204 3 O 6.03649 12.6347 37.0344 -1.2 0
205 3 O 6.76161 1.83036 35.3579 -1.2 0.0110689
206 3 O 6.76161 12.2844 34.3997 -1.2 0.769833
207 3 O 4.55873 0.621126 34.8858 -1.2 0.488998
208 1 Mg 5.09925 5.27793 35.3096 1.2 0.0371573
209 1 Mg 2.27121 3.87343 34.7962 1.2 0.253283
210 2 Si 4.14059 4.63554 32.8772 2.4 0.067631
211 3 O 4.16201 5.23097 31.3778 -1.2 0.365643
212 3 O 3.43689 5.58133 34.0126 -1.2 0.469072
213 3 O 3.43689 3.16847 33.0544 -1.2 0.183224
214 3 O 5.63977 4.37771 33.5264 -1.2 0.335417
215 1 Mg 7.37046 1.27473 41.34 1.2 0.53538
216 2 Si 9.23984 2.26541 38.8454 2.4 0.413761
217 3 O 9.26126 1.66999 40.3447 -1.2 0.00184297
218 3 O 8.53614 3.73248 38.6682 -1.2 0.0596698
219 3 O 8.53614 1.31962 37.71 -1.2 0.632621
220 3 O 0.540521 2.52325 38.1961 -1.2 0.348546
221 1 Mg 2.82804 0.218509 35.8997 1.2 0.485094
222 2 Si 0.958659 12.0947 38.3943 2.4 0.451425
223 3 O 0.937242 12.6901 36.895 -1.2 0
224 3 O 1.66236 0.173621 39.5297 -1.2 0.230031
225 3 O 1.66236 10.6276 38.5715 -1.2 0.322489
226 3 O 9.65798 11.8369 39.0435 -1.2 0.596013
227 1 Mg 5.09925 0.74662 38.6198 1.2 0.342187
228 1 Mg 7.92729 12.2395 38.0297 1.2 0.418569
229 2 Si 6.05791 11.4774 39.9488 2.4 0.55767
230 3 O 6.03649 10.8819 41.4481 -1.2 0.248573
231 3 O 6.76161 10.5316 38.8134 -1.2 0.407629
232 3 O 6.76161 0.0775673 39.7716 -1.2 0.208281
233 3 O 4.55873 11.7352 39.2995 -1.2 0.775894
234 1 Mg 5.09925 3.52514 39.7233 1.2 0.387921
235 1 Mg 2.27121 2.12063 39.2099 1.2 0.395526
236 2 Si 4.14059 2.88275 37.2909 2.4 0.171005
237 3 O 4.16201 3.47817 35.7915 -1.2 0
238 3 O 3.43689 1.41567 37.4681 -1.2 0.704105
239 3 O 3.43689 3.82854 38.4263 -1.2 0.262736
240 3 O 5.63977 2.62491 37.9401 -1.2 0.57616
241 2 Si 9.23984 0.512614 43.2591 2.4 0.98785
242 3 O 9.26126 12.7841 44.7584 -1.2 0.938571
243 3 O 8.53614 1.97969 43.0819 -1.2 0.725492
244 3 O 8.53614 12.4337 42.1236 -1.2 0.580932
245 3 O 0.540521 0.77045 42.6098 -1.2 0.677563
246 1 Mg 2.82804 11.3326 40.3134 1.2 0.495334
247 2 Si 0.958659 10.3419 42.808 2.4 0.686475
248 3 O 0.937242 10.9373 41.3087 -1.2 0.223591
249 3 O 1.66236 11.2877 43.9434 -1.2 0.970067
250 3 O 1.66236 8.87483 42.9852 -1.2 0.709442
251 3 O 9.65798 10.0841 43.4572 -1.2 0.947492
252 1 Mg 5.09925 11.8607 43.0335 1.2 0.627101
253 1 Mg 7.92729 10.4867 42.4434 1.2 0.545516
254 1 Mg 5.09925 1.77234 44.137 1.2 0.854255
255 1 Mg 2.27121 0.367833 43.6236 1.2 0.820242
256 2 Si 4.14059 1.12995 41.7046 2.4 0.67655
257 3 O 4.16201 1.72537 40.2052 -1.2 0.0664567
258 3 O 3.43689 12.5297 41.8818 -1.2 0.481891
259 3 O 3.43689 2.07574 42.84 -1.2 0.96558
260 3 O 5.63977 0.872113 42.3538 -1.2 0.868266
261 1 Mg 7.37046 9.74006 3.82358 1.2 0.532932
262 2 Si 9.23984 10.7307 1.32896 2.4 0.679725
263 3 O 9.26126 10.1353 2.8283 -1.2 0.742511
264 3 O 8.53614 9.78495 0.193541 -1.2 0.939691
265 3 O 8.53614 12.1978 1.15175 -1.2 0.811299
266 3 O 0.540521 10.9886 0.679709 -1.2 0.97323
267 2 Si 0.958659 7.69316 0.877884 2.4 0.72854
268 3 O 0.937242 8.28859 89.6525 -1.2 0.994562
269 3 O 1.66236 8.63895 2.01331 -1.2 0.428209
270 3 O 1.66236 6.22609 1.05509 -1.2 0.637
271 3 O 9.65798 7.43533 1.52714 -1.2 0.839832
272 1 Mg 5.09925 9.21195 1.10342 1.2 0.636044
273 1 Mg 7.92729 7.83794 0.513313 1.2 0.822404
274 2 Si 6.05791 7.07583 2.43239 2.4 0.515183
275 3 O 6.03649 6.4804 3.93172 -1.2 0.572181
276 3 O 6.76161 6.13004 1.29696 -1.2 0.834668
277 3 O 6.76161 8.5429 2.25518 -1.2 0.824788
278 3 O 4.55873 7.33366 1.78313 -1.2 0.860123
279 1 Mg 5.09925 11.9905 2.20685 1.2 0.791357
280 1 Mg 2.27121 10.586 1.69353 1.2 0.679226
281 1 Mg 7.37046 7.98727 8.23728 1.2 0.233283
282 2 Si 9.23984 8.97795 5.74266 2.4 0.248688
283 3 O 9.26126 8.38252 7.24199 -1.2 0.252012
284 3 O 8.53614 10.445 5.56545 -1.2 0.22289
285 3 O 8.53614 8.03216 4.60724 -1.2 0.307824
286 3 O 0.540521 9.23578 5.0934 -1.2 0.685472
287 1 Mg 2.82804 6.93105 2.79696 1.2 0.46702
288 2 Si 0.958659 5.94037 5.29158 2.4 0.386622
289 3 O 0.937242 6.53579 3.79225 -1.2 0.386068
290 3 O 1.66236 4.47329 5.46879 -1.2 0.0169655
291 3 O 1.66236 6.88616 6.427 -1.2 0.112428
292 3 O 9.65798 5.68253 5.94083 -1.2 0.646686
293 1 Mg 5.09925 7.45916 5.51712 1.2 0.0720449
294 1 Mg 7.92729 6.08515 4.92701 1.2 0.356209
295 2 Si 6.05791 5.32303 6.84608 2.4 0.235625
296 3 O 6.03649 4.72761 8.34542 -1.2 0.403687
297 3 O 6.76161 4.37724 5.71066 -1.2 0.148211
298 3 O 6.76161 6.7901 6.66887 -1.2 0.188743
299 3 O 4.55873 5.58087 6.19683 -1.2 0.567614
300 1 Mg 5.09925 10.2377 6.62054 1.2 0.429811
301 1 Mg 2.27121 8.83317 6.10723 1.2 0.290163
302 2 Si 4.14059 9.59528 4.18816 2.4 0.582512
303 3 O 4.16201 10.1907 2.68882 -1.2 0.643111
304 3 O 3.43689 10.5411 5.32358 -1.2 0.624653
305 3 O 3.43689 8.12821 4.36537 -1.2 0.253257
306 3 O 5.63977 9.33745 4.83741 -1.2 0.313204
307 1 Mg 7.37046 6.23447 12.651 1.2 0.22096
308 2 Si 9.23984 7.22515 10.1564 2.4 0.201633
309 3 O 9.26126 6.62973 11.6557 -1.2 0.146454
310 3 O 8.53614 6.27936 9.02093 -1.2 0.448877
311 3 O 8.53614 8.69222 9.97914 -1.2 0
312 3 O 0.540521 7.48299 9.5071 -1.2 0.400258
313 1 Mg 2.82804 5.17825 7.21065 1.2 0.246676
314 2 Si 0.958659 4.18757 9.70527 2.4 0.195259
315 3 O 0.937242 4.78299 8.20594 -1.2 0.233497
316 3 O 1.66236 5.13336 10.8407 -1.2 0.473963
317 3 O 1.66236 2.7205 9.88248 -1.2 0.0503901
318 3 O 9.65798 3.92973 10.3545 -1.2 0.537853
319 1 Mg 5.09925 5.70636 9.93081 1.2 0.082904
320 1 Mg 7.92729 4.33235 9.3407 1.2 0.217027
321 2 Si 6.05791 3.57023 11.2598 2.4 0.39663
322 3 O 6.03649 2.97481 12.7591 -1.2 0.288111
323 3 O 6.76161 5.03731 11.0826 -1.2 0.00345174
324 3 O 6.76161 2.62444 10.1244 -1.2 0
325 3 O 4.55873 3.82807 10.6105 -1.2 0.489396
326 1 Mg 5.09925 8.48488 11.0342 1.2 0.138017
327 1 Mg 2.27121 7.08037 10.5209 1.2 0.20079
328 2 Si 4.14059 7.84249 8.60185 2.4 0.22699
329 3 O 4.16201 8.43791 7.10252 -1.2 0.404511
330 3 O 3.43689 6.37541 8.77906 -1.2 0.0364915
331 3 O 3.43689 8.78828 9.73727 -1.2 0
332 3 O 5.63977 7.58465 9.25111 -1.2 0.403141
333 1 Mg 7.37046 4.48167 17.0647 1.2 0.242767
334 2 Si 9.23984 5.47236 14.57 2.4 0.168349
335 3 O 9.26126 4.87693 16.0694 -1.2 0.329941
336 3 O 8.53614 4.52656 13.4346 -1.2 0.484228
337 3 O 8.53614 6.93943 14.3928 -1.2 0
338 3 O 0.540521 5.73019 13.9208 -1.2 0.299856
339 1 Mg 2.82804 3.42545 11.6243 1.2 0.265007
340 2 Si 0.958659 2.43477 14.119 2.4 0.231308
341 3 O 0.937242 3.0302 12.6196 -1.2 0.508709
342 3 O 1.66236 3.38057 15.2544 -1.2 0.49321
343 3 O 1.66236 0.9677 14.2962 -1.2 0.680976
344 3 O 9.65798 2.17694 14.7682 -1.2 0
345 1 Mg 5.09925 3.95356 14.3445 1.2 0.232944
346 1 Mg 7.92729 2.57955 13.7544 1.2 0.296676
347 2 Si 6.05791 1.81744 15.6735 2.4 0.255844
348 3 O 6.03649 1.22201 17.1728 -1.2 0.800559
349 3 O 6.76161 0.871647 14.5381 -1.2 0
350 3 O 6.76161 3.28451 15.4963 -1.2 0
351 3 O 4.55873 2.07527 15.0242 -1.2 0.440841
352 1 Mg 5.09925 6.73208 15.4479 1.2 0.0458629
353 1 Mg 2.27121 5.32757 14.9346 1.2 0.201909
354 2 Si 4.14059 6.08969 13.0155 2.4 0.167934
355 3 O 4.16201 6.68511 11.5162 -1.2 0.287542
356 3 O 3.43689 4.62262 13.1928 -1.2 0.494398
357 3 O 3.43689 7.03548 14.151 -1.2 0
358 3 O 5.63977 5.83185 13.6648 -1.2 0.218324
359 1 Mg 7.37046 2.72888 21.4784 1.2 0.328303
360 2 Si 9.23984 3.71956 18.9837 2.4 0.216571
361 3 O 9.26126 3.12413 20.4831 -1.2 0.395862
362 3 O 8.53614 2.77377 17.8483 -1.2 0.295396
363 3 O 8.53614 5.18663 18.8065 -1.2 0
364 3 O 0.540521 3.9774 18.3345 -1.2 0.349897
365 1 Mg 2.82804 1.67266 16.038 1.2 0.357955
366 2 Si 0.958659 0.681977 18.5327 2.4 0.337084
367 3 O 0.937242 1.2774 17.0333 -1.2 0.625142
368 3 O 1.66236 1.62777 19.6681 -1.2 0
369 3 O 1.66236 12.0818 18.7099 -1.2 0.633481
370 3 O 9.65798 0.424141 19.1819 -1.2 0
371 1 Mg 5.09925 2.20077 18.7582 1.2 0.253066
372 1 Mg 7.92729 0.826758 18.1681 1.2 0.445048
373 2 Si 6.05791 0.0646423 20.0872 2.4 0.541858
374 3 O 6.03649 12.3361 21.5865 -1.2 0
375 3 O 6.76161 11.9857 18.9517 -1.2 0.734704
376 3 O 6.76161 1.53172 19.91 -1.2 0
377 3 O 4.55873 0.322479 19.4379 -1.2 0.454621
378 1 Mg 5.09925 4.97929 19.8616 1.2 0.107068
379 1 Mg 2.27121 3.57478 19.3483 1.2 0.276983
380 2 Si 4.14059 4.33689 17.4292 2.4 0.095022
381 3 O 4.16201 4.93232 15.9299 -1.2 0.394479
382 3 O 3.43689 2.86982 17.6065 -1.2 0.333632
383 3 O 3.43689 5.28269 18.5647 -1.2 0.438542
384 3 O 5.63977 4.07906 18.0785 -1.2 0.332369
385 1 Mg 7.37046 0.976082 25.8921 1.2 0.440099
386 2 Si 9.23984 1.96676 23.3974 2.4 0.210152
387 3 O 9.26126 1.37134 24.8968 -1.2 0
388 3 O 8.53614 3.43384 23.2202 -1.2 0.104659
389 3 O 8.53614 1.02097 22.262 -1.2 0.434494
390 3 O 0.540521 2.2246 22.7482 -1.2 0.370823
391 1 Mg 2.82804 12.7867 20.4517 1.2 0.61375
392 2 Si 0.958659 11.7961 22.9464 2.4 0.262553
393 3 O 0.937242 12.3915 21.447 -1.2 0
394 3 O 1.66236 12.7418 24.0818 -1.2 0.480249
395 3 O 1.66236 10.329 23.1236 -1.2 0.122558
396 3 O 9.65798 11.5382 23.5956 -1.2 0.365379
397 1 Mg 5.09925 0.447972 23.1719 1.2 0.303496
398 1 Mg 7.92729 11.9408 22.5818 1.2 0.385995
399 2 Si 6.05791 11.1787 24.5009 2.4 0.214321
400 3 O 6.03649 10.5833 26.0002 -1.2 0.518698
401 3 O 6.76161 10.2329 23.3654 -1.2 0.373281
402 3 O 6.76161 12.6458 24.3237 -1.2 0.657535
403 3 O 4.55873 11.4366 23.8516 -1.2 0.497255
404 1 Mg 5.09925 3.22649 24.2753 1.2 0.362995
405 1 Mg 2.27121 1.82198 23.762 1.2 0.325831
406 2 Si 4.14059 2.5841 21.8429 2.4 0.147324
407 3 O 4.16201 3.17952 20.3436 -1.2 0
408 3 O 3.43689 1.11702 22.0201 -1.2 0.607666
409 3 O 3.43689 3.52989 22.9784 -1.2 0.471613
410 3 O 5.63977 2.32626 22.4922 -1.2 0.600362
411 1 Mg 7.37046 12.0902 30.3058 1.2 0.392721
412 2 Si 9.23984 0.213966 27.8111 2.4 0.47624
413 3 O 9.26126 12.4854 29.3105 -1.2 0.743687
414 3 O 8.53614 1.68104 27.6339 -1.2 0.609505
415 3 O 8.53614 12.135 26.6757 -1.2 0.158725
416 3 O 0.540521 0.471803 27.1619 -1.2 0.552682
417 1 Mg 2.82804 11.0339 24.8654 1.2 0.362804
418 2 Si 0.958659 10.0433 27.3601 2.4 0.20951
419 3 O 0.937242 10.6387 25.8607 -1.2 0
420 3 O 1.66236 10.989 28.4955 -1.2 0.363719
421 3 O 1.66236 8.57618 27.5373 -1.2 0
422 3 O 9.65798 9.78542 28.0093 -1.2 0.314359
423 1 Mg 5.09925 11.562 27.5856 1.2 0.226987
424 1 Mg 7.92729 10.188 26.9955 1.2 0.309781
425 2 Si 6.05791 9.42592 28.9146 2.4 0.171184
426 3 O 6.03649 8.83049 30.4139 -1.2 0.45092
427 3 O 6.76161 8.48013 27.7791 -1.2 0.523037
428 3 O 6.76161 10.893 28.7373 -1.2 0.382059
429 3 O 4.55873 9.68376 28.2653 -1.2 0.324959
430 1 Mg 5.09925 1.47369 28.689 1.2 0.365823
431 1 Mg 2.27121 0.0691853 28.1757 1.2 0.498975
432 2 Si 4.14059 0.831301 26.2566 2.4 0.384238
433 3 O 4.16201 1.42673 24.7573 -1.2 0
434 3 O 3.43689 12.2311 26.4338 -1.2 0.0740039
435 3 O 3.43689 1.77709 27.3921 -1.2 0.635879
436 3 O 5.63977 0.573465 26.9059 -1.2 0.78405
437 1 Mg 7.37046 10.3374 34.7195 1.2 0.294091
438 2 Si 9.23984 11.328 32.2248 2.4 0.365321
439 3 O 9.26126 10.7326 33.7242 -1.2 0.622038
440 3 O 8.53614 12.7951 32.0476 -1.2 0.590887
441 3 O 8.53614 10.3822 31.0894 -1.2 0
442 3 O 0.540521 11.5859 31.5756 -1.2 0
443 1 Mg 2.82804 9.28114 29.2791 1.2 0.255676
444 2 Si 0.958659 8.29046 31.7738 2.4 0.130717
445 3 O 0.937242 8.88588 30.2744 -1.2 0.427944
446 3 O 1.66236 9.23625 32.9092 -1.2 0.535481
447 3 O 1.66236 6.82338 31.951 -1.2 0
448 3 O 9.65798 8.03262 32.423 -1.2 0.297707
449 1 Mg 5.09925 9.80925 31.9993 1.2 0.2042
450 1 Mg 7.92729 8.43524 31.4092 1.2 0.234663
451 2 Si 6.05791 7.67312 33.3283 2.4 0.12949
452 3 O 6.03649 7.0777 34.8276 -1.2 0.34808
453 3 O 6.76161 6.72733 32.1928 -1.2 0
454 3 O 6.76161 9.1402 33.151 -1.2 0.20657
455 3 O 4.55873 7.93096 32.679 -1.2 0.310224
456 1 Mg 5.09925 12.5878 33.1027 1.2 0.34961
457 1 Mg 2.27121 11.1833 32.5894 1.2 0.315637
458 2 Si 4.14059 11.9454 30.6703 2.4 0.365876
459 3 O 4.16201 12.5408 29.171 -1.2 0.784365
460 3 O 3.43689 10.4783 30.8475 -1.2 0.07751
461 3 O 3.43689 0.0242966 31.8058 -1.2 0.833169
462 3 O 5.63977 11.6875 31.3196 -1.2 0.511651
463 1 Mg 7.37046 8.58456 39.1331 1.2 0.291627
464 2 Si 9.23984 9.57524 36.6385 2.4 0.311376
465 3 O 9.26126 8.97982 38.1379 -1.2 0.570179
466 3 O 8.53614 11.0423 36.4613 -1.2 0.0691013
467 3 O 8.53614 8.62945 35.5031 -1.2 0.0978929
468 3 O 0.540521 9.83308 35.9893 -1.2 0.568481
469 1 Mg 2.82804 7.52834 33.6928 1.2 0.213819
470 2 Si 0.958659 6.53766 36.1874 2.4 0.1525
471 3 O 0.937242 7.13309 34.6881 -1.2 0.354262
472 3 O 1.66236 5.07059 36.3647 -1.2 0
473 3 O 1.66236 7.48345 37.3229 -1.2 0.503016
474 3 O 9.65798 6.27983 36.8367 -1.2 0.379743
475 1 Mg 5.09925 8.05645 36.413 1.2 0.0305613
476 1 Mg 7.92729 6.68244 35.8229 1.2 0.187695
477 2 Si 6.05791 5.92033 37.7419 2.4 0.30119
478 3 O 6.03649 5.3249 39.2413 -1.2 0.545704
479 3 O 6.76161 4.97453 36.6065 -1.2 0
480 3 O 6.76161 7.3874 37.5647 -1.2 0.539799
481 3 O 4.55873 6.17816 37.0927 -1.2 0.323943
482 1 Mg 5.09925 10.835 37.5164 1.2 0.370537
483 1 Mg 2.27121 9.43046 37.0031 1.2 0.221975
484 2 Si 4.14059 10.1926 35.084 2.4 0.288638
485 3 O 4.16201 10.788 33.5847 -1.2 0.65806
486 3 O 3.43689 8.7255 35.2612 -1.2 0.0601868
487 3 O 3.43689 11.1384 36.2194 -1.2 0
488 3 O 5.63977 9.93474 35.7333 -1.2 0
489 1 Mg 7.37046 6.83177 43.5468 1.2 0.68076
490 2 Si 9.23984 7.82245 41.0522 2.4 0.641899
491 3 O 9.26126 7.22702 42.5516 -1.2 0.592171
492 3 O 8.53614 9.28952 40.875 -1.2 0.110917
493 3 O 8.53614 6.87666 39.9168 -1.2 0.175154
494 3 O 0.540521 8.08028 40.403 -1.2 0.762862
495 1 Mg 2.82804 5.77555 38.1065 1.2 0.238727
496 2 Si 0.958659 4.78487 40.6011 2.4 0.491077
497 3 O 0.937242 5.38029 39.1018 -1.2 0.410089
498 3 O 1.66236 3.31779 40.7784 -1.2 0.234124
499 3 O 1.66236 5.73066 41.7366 -1.2 0.919518
500 3 O 9.65798 4.52703 41.2504 -1.2 0.759454
501 1 Mg 5.09925 6.30366 40.8267 1.2 0
502 1 Mg 7.92729 4.92965 40.2366 1.2 0.354792
503 2 Si 6.05791 4.16753 42.1556 2.4 0.722421
504 3 O 6.03649 3.57211 43.655 -1.2 0.803033
505 3 O 6.76161 3.22174 41.0202 -1.2 0.142431
506 3 O 6.76161 5.6346 41.9784 -1.2 0.436085
507 3 O 4.55873 4.42537 41.5064 -1.2 0.401328
508 1 Mg 5.09925 9.08217 41.9301 1.2 0.48762
509 1 Mg 2.27121 7.67767 41.4168 1.2 0.488931
510 2 Si 4.14059 8.43978 39.4977 2.4 0.535513
511 3 O 4.16201 9.03521 37.9984 -1.2 0.29635
512 3 O 3.43689 6.97271 39.6749 -1.2 0.214255
513 3 O 3.43689 9.38557 40.6331 -1.2 0.336282
514 3 O 5.63977 8.18195 40.147 -1.2 0.626707
515 1 Mg 2.82804 4.02275 42.5202 1.2 0.615249
516 2 Si 4.14059 6.68699 43.9114 2.4 0.842618
517 3 O 4.16201 7.28241 42.4121 -1.2 0.508163
518 3 O 3.43689 5.21991 44.0886 -1.2 0.903874
519 3 O 3.43689 7.63278 45.0468 -1.2 0.967118
520 3 O 5.63977 6.42915 44.5607 -1.2 0.892565
521 1 Mg 0 2.77852 1.10342 1.2 0.749471
522 1 Mg 0 1.02572 5.51712 1.2 0.356065
523 1 Mg 0 12.1398 9.93081 1.2 0.331026
524 1 Mg 0 10.387 14.3445 1.2 0.314886
525 1 Mg 0 8.6342 18.7582 1.2 0.110701
526 1 Mg 0 6.88141 23.1719 1.2 0.0618483
527 1 Mg 0 5.12861 27.5856 1.2 0.114426
528 1 Mg 0 3.37581 31.9993 1.2 0.264676
529 1 Mg 0 1.62302 36.413 1.2 0.266548
530 1 Mg 0 12.7371 40.8267 1.2 0.560337
531 1 Mg 0 5.55704 2.20685 1.2 0.531112
532 1 Mg 0 8.33555 3.31027 1.2 0.501565
533 1 Mg 0 3.80424 6.62054 1.2 0.334345
534 1 Mg 0 6.58276 7.72397 1.2 0.092311
535 1 Mg 0 2.05144 11.0342 1.2 0.343495
536 1 Mg 0 4.82996 12.1377 1.2 0.115885
537 1 Mg 0 0.298648 15.4479 1.2 0.434986
538 1 Mg 0 3.07717 16.5514 1.2 0.291626
539 1 Mg 0 11.4127 19.8616 1.2 0.301877
540 1 Mg 0 1.32437 20.9651 1.2 0.302772
541 1 Mg 0 9.65992 24.2753 1.2 0.281947
542 1 Mg 0 12.4384 25.3787 1.2 0.335721
543 1 Mg 0 7.90713 28.689 1.2 0.265867
544 1 Mg 0 10.6856 29.7924 1.2 0.290536
545 1 Mg 0 6.15433 33.1027 1.2 0.0953583
546 1 Mg 0 8.93285 34.2061 1.2 0.261937
547 1 Mg 0 4.40154 37.5164 1.2 0.300556
548 1 Mg 0 7.18005 38.6198 1.2 0.060112
549 1 Mg 0 2.64874 41.9301 1.2 0.545786
550 1 Mg 0 5.42726 43.0335 1.2 0.734752
551 1 Mg 0 11.1141 4.4137 1.2 0.486839
552 1 Mg 0 9.36128 8.82739 1.2 0.300649
553 1 Mg 0 7.60848 13.2411 1.2 0.0714567
554 1 Mg 0 5.85568 17.6548 1.2 0.0582101
555 1 Mg 0 4.10289 22.0685 1.2 0.283153
556 1 Mg 0 2.35009 26.4822 1.2 0.321943
557 1 Mg 0 0.597296 30.8959 1.2 0.415971
558 1 Mg 0 11.7114 35.3096 1.2 0.344122
559 1 Mg 0 9.95857 39.7233 1.2 0.371636
560 1 Mg 0 0 1.5377e-08 1.2 0.844571
561 1 Mg 7.37046 3.78593 87.6572 1.2 0.72877
562 2 Si 6.05791 1.12169 89.0484 2.4 0.884811
563 3 O 6.03649 0.526266 87.549 -1.2 0.881219
564 3 O 6.76161 0.175899 90.1838 -1.2 0.99762
565 3 O 6.76161 2.58876 89.2256 -1.2 0.883839
566 3 O 4.55873 1.37953 89.6976 -1.2 0.517073
567 1 Mg 7.37046 2.03313 83.2435 1.2 0.45801
568 2 Si 9.23984 3.02381 85.7381 2.4 0.488984
569 3 O 9.26126 2.42839 84.2388 -1.2 0.112898
570 3 O 8.53614 2.07802 86.8735 -1.2 0.616116
571 3 O 8.53614 4.49088 85.9153 -1.2 0.508872
572 3 O 0.540521 3.28165 86.3873 -1.2 0.577634
573 1 Mg 2.82804 0.97691 88.6838 1.2 0.762651
574 2 Si 0.958659 12.8531 86.1892 2.4 0.634112
575 3 O 0.937242 0.581654 87.6885 -1.2 0.867282
576 3 O 1.66236 0.932021 85.0538 -1.2 0.330412
577 3 O 1.66236 11.386 86.012 -1.2 0.73379
578 3 O 9.65798 12.5953 85.5399 -1.2 0.56171
579 1 Mg 5.09925 1.50502 85.9636 1.2 0.487098
580 1 Mg 7.92729 0.13101 86.5537 1.2 0.61982
581 2 Si 6.05791 12.2358 84.6347 2.4 0.442425
582 3 O 6.03649 11.6403 83.1353 -1.2 0.164964
583 3 O 6.76161 11.29 85.7701 -1.2 0.868842
584 3 O 6.76161 0.835968 84.8119 -1.2 0.190837
585 3 O 4.55873 12.4936 85.2839 -1.2 0.717319
586 1 Mg 5.09925 4.28354 84.8602 1.2 0.189616
587 1 Mg 2.27121 2.87903 85.3735 1.2 0.522314
588 2 Si 4.14059 3.64115 87.2926 2.4 0.667185
589 3 O 4.16201 4.23657 88.7919 -1.2 0.897543
590 3 O 3.43689 2.17407 87.1154 -1.2 0.582302
591 3 O 3.43689 4.58694 86.1572 -1.2 0.294359
592 3 O 5.63977 3.38331 86.6433 -1.2 0.458241
593 1 Mg 7.37046 0.280334 78.8298 1.2 0.613392
594 2 Si 9.23984 1.27101 81.3244 2.4 0.275816
595 3 O 9.26126 0.67559 79.8251 -1.2 0
596 3 O 8.53614 0.325223 82.4598 -1.2 0.465434
597 3 O 8.53614 2.73809 81.5016 -1.2 0.118494
598 3 O 0.540521 1.52885 81.9737 -1.2 0.379325
599 1 Mg 2.82804 12.091 84.2701 1.2 0.585642
600 2 Si 0.958659 11.1003 81.7755 2.4 0.310503
601 3 O 0.937242 11.6957 83.2748 -1.2 0.104449
602 3 O 1.66236 12.0461 80.6401 -1.2 0.514985
603 3 O 1.66236 9.63323 81.5983 -1.2 0.175561
604 3 O 9.65798 10.8425 81.1262 -1.2 0.370961
605 1 Mg 5.09925 12.6191 81.5499 1.2 0.324055
606 1 Mg 7.92729 11.2451 82.1401 1.2 0.360359
607 2 Si 6.05791 10.483 80.221 2.4 0.118301
608 3 O 6.03649 9.88754 78.7216 -1.2 0
609 3 O 6.76161 9.53718 81.3564 -1.2 0.454262
610 3 O 6.76161 11.95 80.3982 -1.2 0.574929
611 3 O 4.55873 10.7408 80.8702 -1.2 0.537896
612 1 Mg 5.09925 2.53074 80.4465 1.2 0.416265
613 1 Mg 2.27121 1.12623 80.9598 1.2 0.421802
614 2 Si 4.14059 1.88835 82.8789 2.4 0.265656
615 3 O 4.16201 2.48377 84.3782 -1.2 0.178923
616 3 O 3.43689 0.421276 82.7017 -1.2 0.552285
617 3 O 3.43689 2.83414 81.7435 -1.2 0.324776
618 3 O 5.63977 1.63051 82.2296 -1.2 0.610001
619 1 Mg 7.37046 11.3944 74.4161 1.2 0.347083
620 2 Si 9.23984 12.3851 76.9107 2.4 0.357259
621 3 O 9.26126 11.7897 75.4114 -1.2 0.724634
622 3 O 8.53614 11.4393 78.0461 -1.2 0
623 3 O 8.53614 0.985292 77.0879 -1.2 0.645181
624 3 O 0.540521 12.6429 77.56 -1.2 0
625 1 Mg 2.82804 10.3382 79.8564 1.2 0.344181
626 2 Si 0.958659 9.34751 77.3618 2.4 0.246437
627 3 O 0.937242 9.94293 78.8611 -1.2 0.431079
628 3 O 1.66236 7.88043 77.1846 -1.2 0
629 3 O 1.66236 10.2933 76.2264 -1.2 0.327429
630 3 O 9.65798 9.08967 76.7125 -1.2 0.351768
631 1 Mg 5.09925 10.8663 77.1362 1.2 0.255095
632 1 Mg 7.92729 9.49229 77.7264 1.2 0.283706
633 2 Si 6.05791 8.73017 75.8073 2.4 0.0880917
634 3 O 6.03649 8.13475 74.3079 -1.2 0.363713
635 3 O 6.76161 7.78438 76.9427 -1.2 0.424102
636 3 O 6.76161 10.1972 75.9845 -1.2 0.197288
637 3 O 4.55873 8.98801 76.4565 -1.2 0.320673
638 1 Mg 5.09925 0.777946 76.0328 1.2 0.389898
639 1 Mg 2.27121 12.2403 76.5461 1.2 0.469651
640 2 Si 4.14059 0.135553 78.4652 2.4 0.411208
641 3 O 4.16201 0.730978 79.9645 -1.2 0
642 3 O 3.43689 11.5353 78.288 -1.2 0.0109562
643 3 O 3.43689 1.08135 77.3298 -1.2 0.720402
644 3 O 5.63977 12.7446 77.816 -1.2 0.457975
645 1 Mg 7.37046 9.64161 70.0024 1.2 0.282887
646 2 Si 9.23984 10.6323 72.497 2.4 0.223783
647 3 O 9.26126 10.0369 70.9977 -1.2 0.558965
648 3 O 8.53614 9.6865 73.6324 -1.2 0
649 3 O 8.53614 12.0994 72.6742 -1.2 0.539751
650 3 O 0.540521 10.8901 73.1463 -1.2 0
651 1 Mg 2.82804 8.58539 75.4427 1.2 0.241018
652 2 Si 0.958659 7.59471 72.9481 2.4 0.151156
653 3 O 0.937242 8.19013 74.4474 -1.2 0.29174
654 3 O 1.66236 8.5405 71.8127 -1.2 0.545358
655 3 O 1.66236 6.12764 72.7709 -1.2 0
656 3 O 9.65798 7.33687 72.2988 -1.2 0.441692
657 1 Mg 5.09925 9.1135 72.7225 1.2 0.240597
658 1 Mg 7.92729 7.73949 73.3127 1.2 0.204741
659 2 Si 6.05791 6.97738 71.3936 2.4 0.133846
660 3 O 6.03649 6.38195 69.8943 -1.2 0.297568
661 3 O 6.76161 6.03158 72.529 -1.2 0
662 3 O 6.76161 8.44445 71.5708 -1.2 0.53089
663 3 O 4.55873 7.23521 72.0428 -1.2 0.264146
664 1 Mg 5.09925 11.892 71.6191 1.2 0.382943
665 1 Mg 2.27121 10.4875 72.1324 1.2 0.317689
666 2 Si 4.14059 11.2496 74.0515 2.4 0.301788
667 3 O 4.16201 11.8451 75.5508 -1.2 0.437757