ITEM: TIMESTEP
0
ITEM: NUMBER OF ATOMS
1120
ITEM: BOX BOUNDS xy xz yz pp pp pp
0	15.1985	1.5
0	15.2669	3.5
0	90.2739	2.4
ITEM: ATOMS id type element xu yu zu q BondOriParam
1 3 Mg 7.37046 4.18303 1.61674 1.2 0.500607
2 2 Si 6.05791 1.51879 0.22554 2.4 0.95618
3 1 O 6.03649 0.923366 1.72487 -1.2 0.769459
4 1 O 6.76161 0.572999 89.364 -1.2 0.792946
5 1 O 6.76161 2.98586 0.04833 -1.2 0.888625
6 1 O 4.55873 1.77663 89.8502 -1.2 0.769277
7 3 Mg 7.37046 2.43023 6.03043 1.2 0.10652
8 2 Si 9.23984 3.42091 3.53581 2.4 0.360535
9 1 O 9.26126 2.82549 5.03514 -1.2 0.179758
10 1 O 8.53614 2.47512 2.40039 -1.2 0.645484
11 1 O 8.53614 4.88798 3.3586 -1.2 0.24506
12 1 O 0.540521 3.67875 2.88656 -1.2 0.500332
13 3 Mg 2.82804 1.37401 0.590111 1.2 0.518161
14 2 Si 0.958659 0.383329 3.08473 2.4 0.636839
15 1 O 0.937242 0.978754 1.5854 -1.2 0.531504
16 1 O 1.66236 1.32912 4.22015 -1.2 0.357883
17 1 O 1.66236 11.7831 3.26194 -1.2 0.568775
18 1 O 9.65798 0.125493 3.73399 -1.2 0.391633
19 3 Mg 5.09925 1.90212 3.31027 1.2 0.316053
20 3 Mg 7.92729 0.52811 2.72016 1.2 0.475763
21 2 Si 6.05791 12.6329 4.63924 2.4 0.440619
22 1 O 6.03649 12.0374 6.13857 -1.2 0.222601
23 1 O 6.76161 11.6871 3.50381 -1.2 0.685583
24 1 O 6.76161 1.23307 4.46203 -1.2 0.143756
25 1 O 4.55873 0.0238309 3.98998 -1.2 0.298124
26 3 Mg 5.09925 4.68064 4.4137 1.2 0.150029
27 3 Mg 2.27121 3.27613 3.90038 1.2 0.148502
28 2 Si 4.14059 4.03825 1.98131 2.4 0.653071
29 1 O 4.16201 4.63367 0.481976 -1.2 0.626298
30 1 O 3.43689 2.57117 2.15852 -1.2 0.604764
31 1 O 3.43689 4.98404 3.11673 -1.2 0.212176
32 1 O 5.63977 3.78041 2.63056 -1.2 0.47284
33 3 Mg 7.37046 0.677434 10.4441 1.2 0.25993
34 2 Si 9.23984 1.66811 7.94951 2.4 0.202316
35 1 O 9.26126 1.07269 9.44884 -1.2 0.215657
36 1 O 8.53614 0.722323 6.81408 -1.2 0.55148
37 1 O 8.53614 3.13519 7.7723 -1.2 0.17416
38 1 O 0.540521 1.92595 7.30025 -1.2 0.393967
39 3 Mg 2.82804 12.4881 5.00381 1.2 0.354377
40 2 Si 0.958659 11.4974 7.49843 2.4 0.217011
41 1 O 0.937242 12.0928 5.99909 -1.2 0.21345
42 1 O 1.66236 12.4432 8.63385 -1.2 0.648787
43 1 O 1.66236 10.0303 7.67564 -1.2 0.23192
44 1 O 9.65798 11.2396 8.14768 -1.2 0.385641
45 3 Mg 5.09925 0.149324 7.72397 1.2 0.0918509
46 3 Mg 7.92729 11.6422 7.13386 1.2 0.114042
47 2 Si 6.05791 10.8801 9.05293 2.4 0.0887929
48 1 O 6.03649 10.2846 10.5523 -1.2 0
49 1 O 6.76161 9.93428 7.91751 -1.2 0.178645
50 1 O 6.76161 12.3471 8.87572 -1.2 0.531827
51 1 O 4.55873 11.1379 8.40368 -1.2 0.402259
52 3 Mg 5.09925 2.92784 8.82739 1.2 0.154855
53 3 Mg 2.27121 1.52333 8.31408 1.2 0.0513182
54 2 Si 4.14059 2.28545 6.395 2.4 0.126483
55 1 O 4.16201 2.88087 4.89567 -1.2 0.0479769
56 1 O 3.43689 0.818376 6.57221 -1.2 0.514806
57 1 O 3.43689 3.23124 7.53043 -1.2 0.169676
58 1 O 5.63977 2.02761 7.04426 -1.2 0.344556
59 3 Mg 7.37046 11.7915 14.8578 1.2 0.065844
60 2 Si 9.23984 12.7822 12.3632 2.4 0.385744
61 1 O 9.26126 12.1868 13.8625 -1.2 0.242796
62 1 O 8.53614 11.8364 11.2278 -1.2 0.235477
63 1 O 8.53614 1.38239 12.186 -1.2 0.36023
64 1 O 0.540521 0.173155 11.7139 -1.2 0.657599
65 3 Mg 2.82804 10.7353 9.4175 1.2 0.0619654
66 2 Si 0.958659 9.74461 11.9121 2.4 0.140654
67 1 O 0.937242 10.34 10.4128 -1.2 0.110018
68 1 O 1.66236 8.27753 12.0893 -1.2 0.0670612
69 1 O 1.66236 10.6904 13.0475 -1.2 0.466432
70 1 O 9.65798 9.48677 12.5614 -1.2 0.229248
71 3 Mg 5.09925 11.2634 12.1377 1.2 0.087764
72 3 Mg 7.92729 9.88939 11.5476 1.2 0.00380737
73 2 Si 6.05791 9.12727 13.4666 2.4 0.0879149
74 1 O 6.03649 8.53185 14.966 -1.2 0.026184
75 1 O 6.76161 8.18148 12.3312 -1.2 0.0424114
76 1 O 6.76161 10.5943 13.2894 -1.2 0.426421
77 1 O 4.55873 9.38511 12.8174 -1.2 0.148694
78 3 Mg 5.09925 1.17505 13.2411 1.2 0.12959
79 3 Mg 2.27121 12.6374 12.7278 1.2 0.172612
80 2 Si 4.14059 0.532653 10.8087 2.4 0.27665
81 1 O 4.16201 1.12808 9.30937 -1.2 0.222074
82 1 O 3.43689 11.9324 10.9859 -1.2 0.109646
83 1 O 3.43689 1.47845 11.9441 -1.2 0.360491
84 1 O 5.63977 0.274817 11.458 -1.2 0.467462
85 3 Mg 7.37046 10.0387 19.2715 1.2 0
86 2 Si 9.23984 11.0294 16.7769 2.4 0.196563
87 1 O 9.26126 10.434 18.2762 -1.2 0.11117
88 1 O 8.53614 10.0836 15.6415 -1.2 0
89 1 O 8.53614 12.4965 16.5997 -1.2 0.16619
90 1 O 0.540521 11.2872 16.1276 -1.2 0.140833
91 3 Mg 2.82804 8.98249 13.8312 1.2 0
92 2 Si 0.958659 7.99181 16.3258 2.4 0.0735057
93 1 O 0.937242 8.58723 14.8265 -1.2 0.0252912
94 1 O 1.66236 8.9376 17.4612 -1.2 0.168887
95 1 O 1.66236 6.52474 16.503 -1.2 0
96 1 O 9.65798 7.73397 16.9751 -1.2 0.235797
97 3 Mg 5.09925 9.5106 16.5514 1.2 0.0149316
98 3 Mg 7.92729 8.13659 15.9612 1.2 0.0607847
99 2 Si 6.05791 7.37448 17.8803 2.4 0.0854822
100 1 O 6.03649 6.77905 19.3797 -1.2 0
101 1 O 6.76161 6.42868 16.7449 -1.2 0
102 1 O 6.76161 8.84155 17.7031 -1.2 0.0901069
103 1 O 4.55873 7.63231 17.2311 -1.2 0.175679
104 3 Mg 5.09925 12.2891 17.6548 1.2 0.143736
105 3 Mg 2.27121 10.8846 17.1415 1.2 0.00784143
106 2 Si 4.14059 11.6467 15.2224 2.4 0.223175
107 1 O 4.16201 12.2422 13.7231 -1.2 0.413478
108 1 O 3.43689 10.1797 15.3996 -1.2 0.00973233
109 1 O 3.43689 12.5925 16.3578 -1.2 0.121601
110 1 O 5.63977 11.3889 15.8716 -1.2 0.0643994
111 3 Mg 7.37046 8.28591 23.6852 1.2 0.0649345
112 2 Si 9.23984 9.2766 21.1906 2.4 0.105661
113 1 O 9.26126 8.68117 22.6899 -1.2 0
114 1 O 8.53614 10.7437 21.0134 -1.2 0.122267
115 1 O 8.53614 8.3308 20.0552 -1.2 0
116 1 O 0.540521 9.53443 20.5413 -1.2 0.150053
117 3 Mg 2.82804 7.22969 18.2449 1.2 0
118 2 Si 0.958659 6.23901 20.7395 2.4 0.0828816
119 1 O 0.937242 6.83444 19.2402 -1.2 0
120 1 O 1.66236 4.77194 20.9167 -1.2 0.0297884
121 1 O 1.66236 7.18481 21.8749 -1.2 0.0214269
122 1 O 9.65798 5.98118 21.3888 -1.2 0.204769
123 3 Mg 5.09925 7.7578 20.9651 1.2 0.0794267
124 3 Mg 7.92729 6.38379 20.3749 1.2 0
125 2 Si 6.05791 5.62168 22.294 2.4 0.0771468
126 1 O 6.03649 5.02625 23.7933 -1.2 0.0556165
127 1 O 6.76161 4.67589 21.1586 -1.2 0.0557193
128 1 O 6.76161 7.08875 22.1168 -1.2 0.00626691
129 1 O 4.55873 5.87952 21.6448 -1.2 0.176979
130 3 Mg 5.09925 10.5363 22.0685 1.2 0.181791
131 3 Mg 2.27121 9.13181 21.5552 1.2 0
132 2 Si 4.14059 9.89393 19.6361 2.4 0.150065
133 1 O 4.16201 10.4894 18.1368 -1.2 0.256027
134 1 O 3.43689 8.42686 19.8133 -1.2 0
135 1 O 3.43689 10.8397 20.7715 -1.2 0.130158
136 1 O 5.63977 9.63609 20.2853 -1.2 0.153445
137 3 Mg 7.37046 6.53312 28.0989 1.2 0
138 2 Si 9.23984 7.5238 25.6043 2.4 0.0982505
139 1 O 9.26126 6.92837 27.1036 -1.2 0
140 1 O 8.53614 6.57801 24.4689 -1.2 0.00975718
141 1 O 8.53614 8.99087 25.4271 -1.2 0.064545
142 1 O 0.540521 7.78164 24.955 -1.2 0.26714
143 3 Mg 2.82804 5.4769 22.6586 1.2 0
144 2 Si 0.958659 4.48622 25.1532 2.4 0.102312
145 1 O 0.937242 5.08164 23.6539 -1.2 0
146 1 O 1.66236 5.43201 26.2886 -1.2 0.0596594
147 1 O 1.66236 3.01914 25.3304 -1.2 0.161243
148 1 O 9.65798 4.22838 25.8025 -1.2 0.260551
149 3 Mg 5.09925 6.00501 25.3787 1.2 0.0607071
150 3 Mg 7.92729 4.631 24.7886 1.2 0
151 2 Si 6.05791 3.86888 26.7077 2.4 0.154545
152 1 O 6.03649 3.27346 28.207 -1.2 0.0537111
153 1 O 6.76161 5.33596 26.5305 -1.2 0.0614189
154 1 O 6.76161 2.92309 25.5723 -1.2 0.173481
155 1 O 4.55873 4.12672 26.0585 -1.2 0.231374
156 3 Mg 5.09925 8.78353 26.4822 1.2 0.0938715
157 3 Mg 2.27121 7.37902 25.9689 1.2 0
158 2 Si 4.14059 8.14113 24.0498 2.4 0.0891425
159 1 O 4.16201 8.73656 22.5505 -1.2 0.0561318
160 1 O 3.43689 6.67406 24.227 -1.2 0
161 1 O 3.43689 9.08693 25.1852 -1.2 0.113435
162 1 O 5.63977 7.8833 24.699 -1.2 0.234192
163 3 Mg 7.37046 4.78032 32.5126 1.2 0
164 2 Si 9.23984 5.771 30.018 2.4 0.0885803
165 1 O 9.26126 5.17558 31.5173 -1.2 0
166 1 O 8.53614 7.23808 29.8408 -1.2 0
167 1 O 8.53614 4.82521 28.8826 -1.2 0.141218
168 1 O 0.540521 6.02884 29.3687 -1.2 0.187875
169 3 Mg 2.82804 3.7241 27.0723 1.2 0
170 2 Si 0.958659 2.73342 29.5669 2.4 0.203299
171 1 O 0.937242 3.32885 28.0676 -1.2 0.0407028
172 1 O 1.66236 3.67921 30.7023 -1.2 0.00722893
173 1 O 1.66236 1.26635 29.7441 -1.2 0.207702
174 1 O 9.65798 2.47558 30.2162 -1.2 0.209809
175 3 Mg 5.09925 4.25221 29.7924 1.2 0.0817082
176 3 Mg 7.92729 2.8782 29.2023 1.2 0.00198245
177 2 Si 6.05791 2.11609 31.1214 2.4 0.174814
178 1 O 6.03649 1.52066 32.6207 -1.2 0.288736
179 1 O 6.76161 1.17029 29.986 -1.2 0.127571
180 1 O 6.76161 3.58316 30.9442 -1.2 0.0167717
181 1 O 4.55873 2.37392 30.4722 -1.2 0.153676
182 3 Mg 5.09925 7.03073 30.8959 1.2 0.0273505
183 3 Mg 2.27121 5.62622 30.3826 1.2 0
184 2 Si 4.14059 6.38834 28.4635 2.4 0.0756038
185 1 O 4.16201 6.98376 26.9641 -1.2 0
186 1 O 3.43689 4.92126 28.6407 -1.2 0.0743398
187 1 O 3.43689 7.33413 29.5989 -1.2 0.03481
188 1 O 5.63977 6.1305 29.1127 -1.2 0.150492
189 3 Mg 7.37046 3.02753 36.9263 1.2 0.0324714
190 2 Si 9.23984 4.01821 34.4317 2.4 0.0973208
191 1 O 9.26126 3.42278 35.931 -1.2 0
192 1 O 8.53614 3.07241 33.2963 -1.2 0.287638
193 1 O 8.53614 5.48528 34.2545 -1.2 0.0352689
194 1 O 0.540521 4.27604 33.7824 -1.2 0.210151
195 3 Mg 2.82804 1.97131 31.486 1.2 0.0478017
196 2 Si 0.958659 0.980625 33.9806 2.4 0.292074
197 1 O 0.937242 1.57605 32.4813 -1.2 0.279657
198 1 O 1.66236 1.92642 35.116 -1.2 0.0776534
199 1 O 1.66236 12.3804 34.1578 -1.2 0.427516
200 1 O 9.65798 0.722789 34.6299 -1.2 0.0898158
201 3 Mg 5.09925 2.49942 34.2061 1.2 0.0819821
202 3 Mg 7.92729 1.12541 33.616 1.2 0.063414
203 2 Si 6.05791 0.36329 35.5351 2.4 0.333447
204 1 O 6.03649 12.6347 37.0344 -1.2 0.208242
205 1 O 6.76161 1.83036 35.3579 -1.2 0.0163788
206 1 O 6.76161 12.2844 34.3997 -1.2 0.471443
207 1 O 4.55873 0.621126 34.8858 -1.2 0.0413654
208 3 Mg 5.09925 5.27793 35.3096 1.2 0.0546459
209 3 Mg 2.27121 3.87343 34.7962 1.2 0
210 2 Si 4.14059 4.63554 32.8772 2.4 0.0819389
211 1 O 4.16201 5.23097 31.3778 -1.2 0
212 1 O 3.43689 5.58133 34.0126 -1.2 0
213 1 O 3.43689 3.16847 33.0544 -1.2 0.237969
214 1 O 5.63977 4.37771 33.5264 -1.2 0.229811
215 3 Mg 7.37046 1.27473 41.34 1.2 0.239058
216 2 Si 9.23984 2.26541 38.8454 2.4 0.223145
217 1 O 9.26126 1.66999 40.3447 -1.2 0.233799
218 1 O 8.53614 3.73248 38.6682 -1.2 0.200807
219 1 O 8.53614 1.31962 37.71 -1.2 0.626487
220 1 O 0.540521 2.52325 38.1961 -1.2 0.362934
221 3 Mg 2.82804 0.218509 35.8997 1.2 0.202235
222 2 Si 0.958659 12.0947 38.3943 2.4 0.319164
223 1 O 0.937242 12.6901 36.895 -1.2 0.179099
224 1 O 1.66236 0.173621 39.5297 -1.2 0.221496
225 1 O 1.66236 10.6276 38.5715 -1.2 0.323033
226 1 O 9.65798 11.8369 39.0435 -1.2 0.602524
227 3 Mg 5.09925 0.74662 38.6198 1.2 0.171112
228 3 Mg 7.92729 12.2395 38.0297 1.2 0.1971
229 2 Si 6.05791 11.4774 39.9488 2.4 0.33912
230 1 O 6.03649 10.8819 41.4481 -1.2 0.448372
231 1 O 6.76161 10.5316 38.8134 -1.2 0.234855
232 1 O 6.76161 0.0775673 39.7716 -1.2 0.239156
233 1 O 4.55873 11.7352 39.2995 -1.2 0.483655
234 3 Mg 5.09925 3.52514 39.7233 1.2 0.181585
235 3 Mg 2.27121 2.12063 39.2099 1.2 0.108934
236 2 Si 4.14059 2.88275 37.2909 2.4 0.13908
237 1 O 4.16201 3.47817 35.7915 -1.2 0
238 1 O 3.43689 1.41567 37.4681 -1.2 0.529716
239 1 O 3.43689 3.82854 38.4263 -1.2 0.145228
240 1 O 5.63977 2.62491 37.9401 -1.2 0.300675
241 2 Si 9.23984 0.512614 43.2591 2.4 0.803335
242 1 O 9.26126 12.7841 44.7584 -1.2 0.890587
243 1 O 8.53614 1.97969 43.0819 -1.2 0.745501
244 1 O 8.53614 12.4337 42.1236 -1.2 0.404414
245 1 O 0.540521 0.77045 42.6098 -1.2 0.678264
246 3 Mg 2.82804 11.3326 40.3134 1.2 0.230593
247 2 Si 0.958659 10.3419 42.808 2.4 0.643174
248 1 O 0.937242 10.9373 41.3087 -1.2 0.399004
249 1 O 1.66236 11.2877 43.9434 -1.2 0.911791
250 1 O 1.66236 8.87483 42.9852 -1.2 0.669936
251 1 O 9.65798 10.0841 43.4572 -1.2 0.874368
252 3 Mg 5.09925 11.8607 43.0335 1.2 0.514752
253 3 Mg 7.92729 10.4867 42.4434 1.2 0.414384
254 3 Mg 5.09925 1.77234 44.137 1.2 0.814078
255 3 Mg 2.27121 0.367833 43.6236 1.2 0.718159
256 2 Si 4.14059 1.12995 41.7046 2.4 0.603528
257 1 O 4.16201 1.72537 40.2052 -1.2 0.220904
258 1 O 3.43689 12.5297 41.8818 -1.2 0.474501
259 1 O 3.43689 2.07574 42.84 -1.2 0.86967
260 1 O 5.63977 0.872113 42.3538 -1.2 0.735334
261 3 Mg 7.37046 9.74006 3.82358 1.2 0.183968
262 2 Si 9.23984 10.7307 1.32896 2.4 0.682362
263 1 O 9.26126 10.1353 2.8283 -1.2 0.41033
264 1 O 8.53614 9.78495 0.193541 -1.2 0.788796
265 1 O 8.53614 12.1978 1.15175 -1.2 0.706032
266 1 O 0.540521 10.9886 0.679709 -1.2 0.846455
267 2 Si 0.958659 7.69316 0.877884 2.4 0.662785
268 1 O 0.937242 8.28859 89.6525 -1.2 0.993055
269 1 O 1.66236 8.63895 2.01331 -1.2 0.465167
270 1 O 1.66236 6.22609 1.05509 -1.2 0.61042
271 1 O 9.65798 7.43533 1.52714 -1.2 0.693522
272 3 Mg 5.09925 9.21195 1.10342 1.2 0.504757
273 3 Mg 7.92729 7.83794 0.513313 1.2 0.671393
274 2 Si 6.05791 7.07583 2.43239 2.4 0.493108
275 1 O 6.03649 6.4804 3.93172 -1.2 0.0603074
276 1 O 6.76161 6.13004 1.29696 -1.2 0.5877
277 1 O 6.76161 8.5429 2.25518 -1.2 0.482721
278 1 O 4.55873 7.33366 1.78313 -1.2 0.608346
279 3 Mg 5.09925 11.9905 2.20685 1.2 0.552211
280 3 Mg 2.27121 10.586 1.69353 1.2 0.530924
281 3 Mg 7.37046 7.98727 8.23728 1.2 0
282 2 Si 9.23984 8.97795 5.74266 2.4 0.192058
283 1 O 9.26126 8.38252 7.24199 -1.2 0.0167745
284 1 O 8.53614 10.445 5.56545 -1.2 0.17946
285 1 O 8.53614 8.03216 4.60724 -1.2 0.151759
286 1 O 0.540521 9.23578 5.0934 -1.2 0.260821
287 3 Mg 2.82804 6.93105 2.79696 1.2 0.12969
288 2 Si 0.958659 5.94037 5.29158 2.4 0.192543
289 1 O 0.937242 6.53579 3.79225 -1.2 0.0123672
290 1 O 1.66236 4.47329 5.46879 -1.2 0.122786
291 1 O 1.66236 6.88616 6.427 -1.2 0.0561414
292 1 O 9.65798 5.68253 5.94083 -1.2 0.270351
293 3 Mg 5.09925 7.45916 5.51712 1.2 0.128059
294 3 Mg 7.92729 6.08515 4.92701 1.2 0.030888
295 2 Si 6.05791 5.32303 6.84608 2.4 0.138062
296 1 O 6.03649 4.72761 8.34542 -1.2 0.0555445
297 1 O 6.76161 4.37724 5.71066 -1.2 0.137219
298 1 O 6.76161 6.7901 6.66887 -1.2 0.0376921
299 1 O 4.55873 5.58087 6.19683 -1.2 0.217094
300 3 Mg 5.09925 10.2377 6.62054 1.2 0.199659
301 3 Mg 2.27121 8.83317 6.10723 1.2 0
302 2 Si 4.14059 9.59528 4.18816 2.4 0.405758
303 1 O 4.16201 10.1907 2.68882 -1.2 0.550449
304 1 O 3.43689 10.5411 5.32358 -1.2 0.278419
305 1 O 3.43689 8.12821 4.36537 -1.2 0.182152
306 1 O 5.63977 9.33745 4.83741 -1.2 0.327468
307 3 Mg 7.37046 6.23447 12.651 1.2 0
308 2 Si 9.23984 7.22515 10.1564 2.4 0.0876705
309 1 O 9.26126 6.62973 11.6557 -1.2 0
310 1 O 8.53614 6.27936 9.02093 -1.2 0.0075048
311 1 O 8.53614 8.69222 9.97914 -1.2 0.0468073
312 1 O 0.540521 7.48299 9.5071 -1.2 0.267002
313 3 Mg 2.82804 5.17825 7.21065 1.2 0
314 2 Si 0.958659 4.18757 9.70527 2.4 0.116355
315 1 O 0.937242 4.78299 8.20594 -1.2 0
316 1 O 1.66236 5.13336 10.8407 -1.2 0.0378401
317 1 O 1.66236 2.7205 9.88248 -1.2 0.163539
318 1 O 9.65798 3.92973 10.3545 -1.2 0.206769
319 3 Mg 5.09925 5.70636 9.93081 1.2 0.0610851
320 3 Mg 7.92729 4.33235 9.3407 1.2 0
321 2 Si 6.05791 3.57023 11.2598 2.4 0.203688
322 1 O 6.03649 2.97481 12.7591 -1.2 0.152072
323 1 O 6.76161 5.03731 11.0826 -1.2 0.023968
324 1 O 6.76161 2.62444 10.1244 -1.2 0.163914
325 1 O 4.55873 3.82807 10.6105 -1.2 0.156028
326 3 Mg 5.09925 8.48488 11.0342 1.2 0.0925759
327 3 Mg 2.27121 7.08037 10.5209 1.2 0
328 2 Si 4.14059 7.84249 8.60185 2.4 0.0976428
329 1 O 4.16201 8.43791 7.10252 -1.2 0
330 1 O 3.43689 6.37541 8.77906 -1.2 0
331 1 O 3.43689 8.78828 9.73727 -1.2 0.0890678
332 1 O 5.63977 7.58465 9.25111 -1.2 0.231032
333 3 Mg 7.37046 4.48167 17.0647 1.2 0
334 2 Si 9.23984 5.47236 14.57 2.4 0.0975596
335 1 O 9.26126 4.87693 16.0694 -1.2 0
336 1 O 8.53614 4.52656 13.4346 -1.2 0.165274
337 1 O 8.53614 6.93943 14.3928 -1.2 0
338 1 O 0.540521 5.73019 13.9208 -1.2 0.201455
339 3 Mg 2.82804 3.42545 11.6243 1.2 0
340 2 Si 0.958659 2.43477 14.119 2.4 0.187564
341 1 O 0.937242 3.0302 12.6196 -1.2 0.0472995
342 1 O 1.66236 3.38057 15.2544 -1.2 0.0151568
343 1 O 1.66236 0.9677 14.2962 -1.2 0.178627
344 1 O 9.65798 2.17694 14.7682 -1.2 0.164361
345 3 Mg 5.09925 3.95356 14.3445 1.2 0.051376
346 3 Mg 7.92729 2.57955 13.7544 1.2 0.0103317
347 2 Si 6.05791 1.81744 15.6735 2.4 0.176505
348 1 O 6.03649 1.22201 17.1728 -1.2 0.373609
349 1 O 6.76161 0.871647 14.5381 -1.2 0.0884029
350 1 O 6.76161 3.28451 15.4963 -1.2 0.0121876
351 1 O 4.55873 2.07527 15.0242 -1.2 0.107863
352 3 Mg 5.09925 6.73208 15.4479 1.2 0.0137639
353 3 Mg 2.27121 5.32757 14.9346 1.2 0.0632273
354 2 Si 4.14059 6.08969 13.0155 2.4 0.0744444
355 1 O 4.16201 6.68511 11.5162 -1.2 0
356 1 O 3.43689 4.62262 13.1928 -1.2 0.0955214
357 1 O 3.43689 7.03548 14.151 -1.2 0
358 1 O 5.63977 5.83185 13.6648 -1.2 0.130681
359 3 Mg 7.37046 2.72888 21.4784 1.2 0.0482247
360 2 Si 9.23984 3.71956 18.9837 2.4 0.11649
361 1 O 9.26126 3.12413 20.4831 -1.2 0
362 1 O 8.53614 2.77377 17.8483 -1.2 0.383022
363 1 O 8.53614 5.18663 18.8065 -1.2 0.0602545
364 1 O 0.540521 3.9774 18.3345 -1.2 0.217424
365 3 Mg 2.82804 1.67266 16.038 1.2 0.0514639
366 2 Si 0.958659 0.681977 18.5327 2.4 0.320677
367 1 O 0.937242 1.2774 17.0333 -1.2 0.326682
368 1 O 1.66236 1.62777 19.6681 -1.2 0.131664
369 1 O 1.66236 12.0818 18.7099 -1.2 0.44013
370 1 O 9.65798 0.424141 19.1819 -1.2 0.126891
371 3 Mg 5.09925 2.20077 18.7582 1.2 0.0849477
372 3 Mg 7.92729 0.826758 18.1681 1.2 0.115071
373 2 Si 6.05791 0.0646423 20.0872 2.4 0.328789
374 1 O 6.03649 12.3361 21.5865 -1.2 0.179196
375 1 O 6.76161 11.9857 18.9517 -1.2 0.476067
376 1 O 6.76161 1.53172 19.91 -1.2 0.0663277
377 1 O 4.55873 0.322479 19.4379 -1.2 0.0516312
378 3 Mg 5.09925 4.97929 19.8616 1.2 0.0713395
379 3 Mg 2.27121 3.57478 19.3483 1.2 0
380 2 Si 4.14059 4.33689 17.4292 2.4 0.100336
381 1 O 4.16201 4.93232 15.9299 -1.2 0
382 1 O 3.43689 2.86982 17.6065 -1.2 0.326572
383 1 O 3.43689 5.28269 18.5647 -1.2 0.0502186
384 1 O 5.63977 4.07906 18.0785 -1.2 0.147796
385 3 Mg 7.37046 0.976082 25.8921 1.2 0.153568
386 2 Si 9.23984 1.96676 23.3974 2.4 0.11692
387 1 O 9.26126 1.37134 24.8968 -1.2 0.163731
388 1 O 8.53614 3.43384 23.2202 -1.2 0.167495
389 1 O 8.53614 1.02097 22.262 -1.2 0.571749
390 1 O 0.540521 2.2246 22.7482 -1.2 0.416543
391 3 Mg 2.82804 12.7867 20.4517 1.2 0.344706
392 2 Si 0.958659 11.7961 22.9464 2.4 0.173909
393 1 O 0.937242 12.3915 21.447 -1.2 0.134866
394 1 O 1.66236 12.7418 24.0818 -1.2 0.666506
395 1 O 1.66236 10.329 23.1236 -1.2 0.241566
396 1 O 9.65798 11.5382 23.5956 -1.2 0.374371
397 3 Mg 5.09925 0.447972 23.1719 1.2 0.110028
398 3 Mg 7.92729 11.9408 22.5818 1.2 0.121794
399 2 Si 6.05791 11.1787 24.5009 2.4 0.107208
400 1 O 6.03649 10.5833 26.0002 -1.2 0.0756993
401 1 O 6.76161 10.2329 23.3654 -1.2 0.160248
402 1 O 6.76161 12.6458 24.3237 -1.2 0.556928
403 1 O 4.55873 11.4366 23.8516 -1.2 0.338441
404 3 Mg 5.09925 3.22649 24.2753 1.2 0.167645
405 3 Mg 2.27121 1.82198 23.762 1.2 0.024924
406 2 Si 4.14059 2.5841 21.8429 2.4 0.109154
407 1 O 4.16201 3.17952 20.3436 -1.2 0.0550486
408 1 O 3.43689 1.11702 22.0201 -1.2 0.463692
409 1 O 3.43689 3.52989 22.9784 -1.2 0.146628
410 1 O 5.63977 2.32626 22.4922 -1.2 0.33009
411 3 Mg 7.37046 12.0902 30.3058 1.2 0.133583
412 2 Si 9.23984 0.213966 27.8111 2.4 0.275374
413 1 O 9.26126 12.4854 29.3105 -1.2 0.292152
414 1 O 8.53614 1.68104 27.6339 -1.2 0.374812
415 1 O 8.53614 12.135 26.6757 -1.2 0.273757
416 1 O 0.540521 0.471803 27.1619 -1.2 0.594627
417 3 Mg 2.82804 11.0339 24.8654 1.2 0.0588491
418 2 Si 0.958659 10.0433 27.3601 2.4 0.127438
419 1 O 0.937242 10.6387 25.8607 -1.2 0.107595
420 1 O 1.66236 10.989 28.4955 -1.2 0.464116
421 1 O 1.66236 8.57618 27.5373 -1.2 0.0717638
422 1 O 9.65798 9.78542 28.0093 -1.2 0.286782
423 3 Mg 5.09925 11.562 27.5856 1.2 0.0831441
424 3 Mg 7.92729 10.188 26.9955 1.2 0.0159431
425 2 Si 6.05791 9.42592 28.9146 2.4 0.0888083
426 1 O 6.03649 8.83049 30.4139 -1.2 0.0598363
427 1 O 6.76161 8.48013 27.7791 -1.2 0.0538703
428 1 O 6.76161 10.893 28.7373 -1.2 0.410524
429 1 O 4.55873 9.68376 28.2653 -1.2 0.149767
430 3 Mg 5.09925 1.47369 28.689 1.2 0.162062
431 3 Mg 2.27121 0.0691853 28.1757 1.2 0.255132
432 2 Si 4.14059 0.831301 26.2566 2.4 0.247316
433 1 O 4.16201 1.42673 24.7573 -1.2 0.231222
434 1 O 3.43689 12.2311 26.4338 -1.2 0.191827
435 1 O 3.43689 1.77709 27.3921 -1.2 0.312506
436 1 O 5.63977 0.573465 26.9059 -1.2 0.463793
437 3 Mg 7.37046 10.3374 34.7195 1.2 0
438 2 Si 9.23984 11.328 32.2248 2.4 0.260394
439 1 O 9.26126 10.7326 33.7242 -1.2 0.179114
440 1 O 8.53614 12.7951 32.0476 -1.2 0.163453
441 1 O 8.53614 10.3822 31.0894 -1.2 0.00661649
442 1 O 0.540521 11.5859 31.5756 -1.2 0.0925988
443 3 Mg 2.82804 9.28114 29.2791 1.2 0
444 2 Si 0.958659 8.29046 31.7738 2.4 0.0870376
445 1 O 0.937242 8.88588 30.2744 -1.2 0
446 1 O 1.66236 9.23625 32.9092 -1.2 0.177814
447 1 O 1.66236 6.82338 31.951 -1.2 0
448 1 O 9.65798 8.03262 32.423 -1.2 0.220647
449 3 Mg 5.09925 9.80925 31.9993 1.2 0.0398737
450 3 Mg 7.92729 8.43524 31.4092 1.2 0
451 2 Si 6.05791 7.67312 33.3283 2.4 0.0903665
452 1 O 6.03649 7.0777 34.8276 -1.2 0
453 1 O 6.76161 6.72733 32.1928 -1.2 0
454 1 O 6.76161 9.1402 33.151 -1.2 0.164883
455 1 O 4.55873 7.93096 32.679 -1.2 0.210821
456 3 Mg 5.09925 12.5878 33.1027 1.2 0.118121
457 3 Mg 2.27121 11.1833 32.5894 1.2 0.0258563
458 2 Si 4.14059 11.9454 30.6703 2.4 0.245314
459 1 O 4.16201 12.5408 29.171 -1.2 0.383396
460 1 O 3.43689 10.4783 30.8475 -1.2 0.0577304
461 1 O 3.43689 0.0242966 31.8058 -1.2 0.522013
462 1 O 5.63977 11.6875 31.3196 -1.2 0.146305
463 3 Mg 7.37046 8.58456 39.1331 1.2 0
464 2 Si 9.23984 9.57524 36.6385 2.4 0.196529
465 1 O 9.26126 8.97982 38.1379 -1.2 0.0886951
466 1 O 8.53614 11.0423 36.4613 -1.2 0.11562
467 1 O 8.53614 8.62945 35.5031 -1.2 0
468 1 O 0.540521 9.83308 35.9893 -1.2 0.0845643
469 3 Mg 2.82804 7.52834 33.6928 1.2 0
470 2 Si 0.958659 6.53766 36.1874 2.4 0.102719
471 1 O 0.937242 7.13309 34.6881 -1.2 0
472 1 O 1.66236 5.07059 36.3647 -1.2 0.00915217
473 1 O 1.66236 7.48345 37.3229 -1.2 0.0998936
474 1 O 9.65798 6.27983 36.8367 -1.2 0.216353
475 3 Mg 5.09925 8.05645 36.413 1.2 0.0821462
476 3 Mg 7.92729 6.68244 35.8229 1.2 0
477 2 Si 6.05791 5.92033 37.7419 2.4 0.135122
478 1 O 6.03649 5.3249 39.2413 -1.2 0.0127385
479 1 O 6.76161 4.97453 36.6065 -1.2 0.0291721
480 1 O 6.76161 7.3874 37.5647 -1.2 0.104009
481 1 O 4.55873 6.17816 37.0927 -1.2 0.200197
482 3 Mg 5.09925 10.835 37.5164 1.2 0.167678
483 3 Mg 2.27121 9.43046 37.0031 1.2 0
484 2 Si 4.14059 10.1926 35.084 2.4 0.20196
485 1 O 4.16201 10.788 33.5847 -1.2 0.272985
486 1 O 3.43689 8.7255 35.2612 -1.2 0
487 1 O 3.43689 11.1384 36.2194 -1.2 0.12934
488 1 O 5.63977 9.93474 35.7333 -1.2 0.0881296
489 3 Mg 7.37046 6.83177 43.5468 1.2 0.426851
490 2 Si 9.23984 7.82245 41.0522 2.4 0.382202
491 1 O 9.26126 7.22702 42.5516 -1.2 0.447566
492 1 O 8.53614 9.28952 40.875 -1.2 0.341046
493 1 O 8.53614 6.87666 39.9168 -1.2 0.0668112
494 1 O 0.540521 8.08028 40.403 -1.2 0.317118
495 3 Mg 2.82804 5.77555 38.1065 1.2 0
496 2 Si 0.958659 4.78487 40.6011 2.4 0.340762
497 1 O 0.937242 5.38029 39.1018 -1.2 0.032624
498 1 O 1.66236 3.31779 40.7784 -1.2 0.245514
499 1 O 1.66236 5.73066 41.7366 -1.2 0.426747
500 1 O 9.65798 4.52703 41.2504 -1.2 0.519908
501 3 Mg 5.09925 6.30366 40.8267 1.2 0.153956
502 3 Mg 7.92729 4.92965 40.2366 1.2 0.0754638
503 2 Si 6.05791 4.16753 42.1556 2.4 0.636117
504 1 O 6.03649 3.57211 43.655 -1.2 0.736364
505 1 O 6.76161 3.22174 41.0202 -1.2 0.211235
506 1 O 6.76161 5.6346 41.9784 -1.2 0.418055
507 1 O 4.55873 4.42537 41.5064 -1.2 0.496819
508 3 Mg 5.09925 9.08217 41.9301 1.2 0.35933
509 3 Mg 2.27121 7.67767 41.4168 1.2 0.165623
510 2 Si 4.14059 8.43978 39.4977 2.4 0.349642
511 1 O 4.16201 9.03521 37.9984 -1.2 0.0185241
512 1 O 3.43689 6.97271 39.6749 -1.2 0.0886004
513 1 O 3.43689 9.38557 40.6331 -1.2 0.281272
514 1 O 5.63977 8.18195 40.147 -1.2 0.235651
515 3 Mg 2.82804 4.02275 42.5202 1.2 0.377826
516 2 Si 4.14059 6.68699 43.9114 2.4 0.750724
517 1 O 4.16201 7.28241 42.4121 -1.2 0.353707
518 1 O 3.43689 5.21991 44.0886 -1.2 0.77581
519 1 O 3.43689 7.63278 45.0468 -1.2 0.621521
520 1 O 5.63977 6.42915 44.5607 -1.2 0.766169
521 3 Mg 0 2.77852 1.10342 1.2 0.516121
522 3 Mg 0 1.02572 5.51712 1.2 0.160784
523 3 Mg 0 12.1398 9.93081 1.2 0.148951
524 3 Mg 0 10.387 14.3445 1.2 0.116178
525 3 Mg 0 8.6342 18.7582 1.2 0.0840783
526 3 Mg 0 6.88141 23.1719 1.2 0.0527929
527 3 Mg 0 5.12861 27.5856 1.2 0.109589
528 3 Mg 0 3.37581 31.9993 1.2 0.104861
529 3 Mg 0 1.62302 36.413 1.2 0.0970444
530 3 Mg 0 12.7371 40.8267 1.2 0.325063
531 3 Mg 0 5.55704 2.20685 1.2 0.305956
532 3 Mg 0 8.33555 3.31027 1.2 0.25054
533 3 Mg 0 3.80424 6.62054 1.2 0.14746
534 3 Mg 0 6.58276 7.72397 1.2 0.0545512
535 3 Mg 0 2.05144 11.0342 1.2 0.154533
536 3 Mg 0 4.82996 12.1377 1.2 0.105127
537 3 Mg 0 0.298648 15.4479 1.2 0.185081
538 3 Mg 0 3.07717 16.5514 1.2 0.103558
539 3 Mg 0 11.4127 19.8616 1.2 0.107636
540 3 Mg 0 1.32437 20.9651 1.2 0.144231
541 3 Mg 0 9.65992 24.2753 1.2 0.112567
542 3 Mg 0 12.4384 25.3787 1.2 0.162976
543 3 Mg 0 7.90713 28.689 1.2 0.0807396
544 3 Mg 0 10.6856 29.7924 1.2 0.12082
545 3 Mg 0 6.15433 33.1027 1.2 0.021333
546 3 Mg 0 8.93285 34.2061 1.2 0.0755963
547 3 Mg 0 4.40154 37.5164 1.2 0.135354
548 3 Mg 0 7.18005 38.6198 1.2 0.0709095
549 3 Mg 0 2.64874 41.9301 1.2 0.474328
550 3 Mg 0 5.42726 43.0335 1.2 0.522236
551 3 Mg 0 11.1141 4.4137 1.2 0.254559
552 3 Mg 0 9.36128 8.82739 1.2 0.102569
553 3 Mg 0 7.60848 13.2411 1.2 0.0514012
554 3 Mg 0 5.85568 17.6548 1.2 0.0211817
555 3 Mg 0 4.10289 22.0685 1.2 0.120992
556 3 Mg 0 2.35009 26.4822 1.2 0.155731
557 3 Mg 0 0.597296 30.8959 1.2 0.205111
558 3 Mg 0 11.7114 35.3096 1.2 0.148469
559 3 Mg 0 9.95857 39.7233 1.2 0.176124
560 3 Mg 0 0 1.5377e-08 1.2 0.715247
561 3 Mg 7.37046 3.78593 87.6572 1.2 0.426133
562 2 Si 6.05791 1.12169 89.0484 2.4 0.7683
563 1 O 6.03649 0.526266 87.549 -1.2 0.732207
564 1 O 6.76161 0.175899 90.1838 -1.2 0.857349
565 1 O 6.76161 2.58876 89.2256 -1.2 0.750845
566 1 O 4.55873 1.37953 89.6976 -1.2 0.594937
567 3 Mg 7.37046 2.03313 83.2435 1.2 0.135008
568 2 Si 9.23984 3.02381 85.7381 2.4 0.353326
569 1 O 9.26126 2.42839 84.2388 -1.2 0.290034
570 1 O 8.53614 2.07802 86.8735 -1.2 0.721439
571 1 O 8.53614 4.49088 85.9153 -1.2 0.396276
572 1 O 0.540521 3.28165 86.3873 -1.2 0.619916
573 3 Mg 2.82804 0.97691 88.6838 1.2 0.522902
574 2 Si 0.958659 12.8531 86.1892 2.4 0.526414
575 1 O 0.937242 0.581654 87.6885 -1.2 0.672391
576 1 O 1.66236 0.932021 85.0538 -1.2 0.42603
577 1 O 1.66236 11.386 86.012 -1.2 0.56152
578 1 O 9.65798 12.5953 85.5399 -1.2 0.673094
579 3 Mg 5.09925 1.50502 85.9636 1.2 0.248814
580 3 Mg 7.92729 0.13101 86.5537 1.2 0.522506
581 2 Si 6.05791 12.2358 84.6347 2.4 0.322341
582 1 O 6.03649 11.6403 83.1353 -1.2 0.282553
583 1 O 6.76161 11.29 85.7701 -1.2 0.563179
584 1 O 6.76161 0.835968 84.8119 -1.2 0.266633
585 1 O 4.55873 12.4936 85.2839 -1.2 0.580219
586 3 Mg 5.09925 4.28354 84.8602 1.2 0.229127
587 3 Mg 2.27121 2.87903 85.3735 1.2 0.15905
588 2 Si 4.14059 3.64115 87.2926 2.4 0.481341
589 1 O 4.16201 4.23657 88.7919 -1.2 0.694509
590 1 O 3.43689 2.17407 87.1154 -1.2 0.646738
591 1 O 3.43689 4.58694 86.1572 -1.2 0.327184
592 1 O 5.63977 3.38331 86.6433 -1.2 0.466402
593 3 Mg 7.37046 0.280334 78.8298 1.2 0.331895
594 2 Si 9.23984 1.27101 81.3244 2.4 0.163129
595 1 O 9.26126 0.67559 79.8251 -1.2 0.141202
596 1 O 8.53614 0.325223 82.4598 -1.2 0.671728
597 1 O 8.53614 2.73809 81.5016 -1.2 0.22139
598 1 O 0.540521 1.52885 81.9737 -1.2 0.410009
599 3 Mg 2.82804 12.091 84.2701 1.2 0.255643
600 2 Si 0.958659 11.1003 81.7755 2.4 0.172504
601 1 O 0.937242 11.6957 83.2748 -1.2 0.26956
602 1 O 1.66236 12.0461 80.6401 -1.2 0.546593
603 1 O 1.66236 9.63323 81.5983 -1.2 0.217661
604 1 O 9.65798 10.8425 81.1262 -1.2 0.384973
605 3 Mg 5.09925 12.6191 81.5499 1.2 0.12011
606 3 Mg 7.92729 11.2451 82.1401 1.2 0.0607037
607 2 Si 6.05791 10.483 80.221 2.4 0.0934253
608 1 O 6.03649 9.88754 78.7216 -1.2 0.0564846
609 1 O 6.76161 9.53718 81.3564 -1.2 0.175079
610 1 O 6.76161 11.95 80.3982 -1.2 0.491696
611 1 O 4.55873 10.7408 80.8702 -1.2 0.365751
612 3 Mg 5.09925 2.53074 80.4465 1.2 0.199759
613 3 Mg 2.27121 1.12623 80.9598 1.2 0.117619
614 2 Si 4.14059 1.88835 82.8789 2.4 0.109359
615 1 O 4.16201 2.48377 84.3782 -1.2 0.166819
616 1 O 3.43689 0.421276 82.7017 -1.2 0.576542
617 1 O 3.43689 2.83414 81.7435 -1.2 0.171217
618 1 O 5.63977 1.63051 82.2296 -1.2 0.370216
619 3 Mg 7.37046 11.3944 74.4161 1.2 0.0381781
620 2 Si 9.23984 12.3851 76.9107 2.4 0.364997
621 1 O 9.26126 11.7897 75.4114 -1.2 0.251993
622 1 O 8.53614 11.4393 78.0461 -1.2 0.166431
623 1 O 8.53614 0.985292 77.0879 -1.2 0.424926
624 1 O 0.540521 12.6429 77.56 -1.2 0.157671
625 3 Mg 2.82804 10.3382 79.8564 1.2 0.0472862
626 2 Si 0.958659 9.34751 77.3618 2.4 0.123512
627 1 O 0.937242 9.94293 78.8611 -1.2 0.0130116
628 1 O 1.66236 7.88043 77.1846 -1.2 0.0431934
629 1 O 1.66236 10.2933 76.2264 -1.2 0.369652
630 1 O 9.65798 9.08967 76.7125 -1.2 0.169904
631 3 Mg 5.09925 10.8663 77.1362 1.2 0.0852301
632 3 Mg 7.92729 9.49229 77.7264 1.2 0
633 2 Si 6.05791 8.73017 75.8073 2.4 0.0995413
634 1 O 6.03649 8.13475 74.3079 -1.2 0
635 1 O 6.76161 7.78438 76.9427 -1.2 0.0323981
636 1 O 6.76161 10.1972 75.9845 -1.2 0.346688
637 1 O 4.55873 8.98801 76.4565 -1.2 0.154007
638 3 Mg 5.09925 0.777946 76.0328 1.2 0.133178
639 3 Mg 2.27121 12.2403 76.5461 1.2 0.135056
640 2 Si 4.14059 0.135553 78.4652 2.4 0.291784
641 1 O 4.16201 0.730978 79.9645 -1.2 0.177708
642 1 O 3.43689 11.5353 78.288 -1.2 0.0821232
643 1 O 3.43689 1.08135 77.3298 -1.2 0.467835
644 1 O 5.63977 12.7446 77.816 -1.2 0.0583633
645 3 Mg 7.37046 9.64161 70.0024 1.2 0
646 2 Si 9.23984 10.6323 72.497 2.4 0.167842
647 1 O 9.26126 10.0369 70.9977 -1.2 0.0636386
648 1 O 8.53614 9.6865 73.6324 -1.2 0.00393254
649 1 O 8.53614 12.0994 72.6742 -1.2 0.185891
650 1 O 0.540521 10.8901 73.1463 -1.2 0.138413
651 3 Mg 2.82804 8.58539 75.4427 1.2 0
652 2 Si 0.958659 7.59471 72.9481 2.4 0.0901236
653 1 O 0.937242 8.19013 74.4474 -1.2 0
654 1 O 1.66236 8.5405 71.8127 -1.2 0.170486
655 1 O 1.66236 6.12764 72.7709 -1.2 0
656 1 O 9.65798 7.33687 72.2988 -1.2 0.233772
657 3 Mg 5.09925 9.1135 72.7225 1.2 0.0500914
658 3 Mg 7.92729 7.73949 73.3127 1.2 0.0587955
659 2 Si 6.05791 6.97738 71.3936 2.4 0.0668741
660 1 O 6.03649 6.38195 69.8943 -1.2 0
661 1 O 6.76161 6.03158 72.529 -1.2 0
662 1 O 6.76161 8.44445 71.5708 -1.2 0.0933079
663 1 O 4.55873 7.23521 72.0428 -1.2 0.14348
664 3 Mg 5.09925 11.892 71.6191 1.2 0.134536