ITEM: TIMESTEP	
0	
ITEM: NUMBER OF ATOMS	
2184	
ITEM: BOX BOUNDS pp pp pp	
0	4.749	
0	11.822	
0	405.33	
ITEM: ATOMS id type element xu yu zu q BondOriParam	S[1] S[2] S[3] S[4] S[5] 
1 1 Mg 4.70768 4.71114 205.103 1.2 0	19.791997712804882 1.9425670823816061 2.2265536999344806 4.890211670845776 7.161213195265287 
2 2 Si 2.02355 3.0998 206.049 2.4 0.11293	19.873765488410093 1.8396791769703587 2.0783415758050907 5.180224028063785 7.0539834251625 
3 3 O 3.63678 3.08133 206.06 -1.2 0.00778993	19.899787483823783 2.0331457224860694 1.9569671277461815 4.7218092471304605 7.15058259172235 
4 3 O 1.31737 3.04826 204.573 -1.2 0.0203199	19.815199280255502 1.9468589359619728 2.0900378042764873 5.078666774283811 6.668573126347107 
5 3 O 1.31737 4.36445 206.813 -1.2 0.00389618	19.907877539639177 1.8554436402969643 1.6845225798712835 4.47563355544817 7.0918580397320765 
6 3 O 1.32497 1.80756 206.807 -1.2 0.14257	19.967430651806673 2.1777923652046196 2.0900239384541495 5.14042164015059 6.6134942296114785 
7 1 Mg 2.3745 5.91101 202.665 1.2 0.170259	19.902988830402986 2.113775011603992 2.114455385312879 5.191541198376339 7.108121869983651 
8 2 Si 0.350951 7.49516 203.47 2.4 0.321753	19.819265758768914 1.8436753355657478 1.8133425958106018 4.578555216034508 6.7730504670857075 
9 3 O -1.26228 7.4767 203.481 -1.2 0.214048	20.005416142942714 2.0297083164005283 1.688385212038812 5.03994902182683 6.77912854737341 
10 3 O 1.05713 7.44363 201.994 -1.2 0.104127	19.778828866704483 1.982880791842218 2.23789362132954 4.978360681844655 6.706518290111258 
11 3 O 1.05713 8.75982 204.234 -1.2 0.00137557	20.136910980172384 2.107166141489196 1.9290542666479733 4.8615247193107995 7.309660419612504 
12 3 O 1.04953 6.20292 204.228 -1.2 0.280064	19.99422278796556 1.9722166195976683 1.7820381560363336 4.706643799623653 6.938005763906675 
13 1 Mg 2.33318 2.71552 202.806 1.2 0.178218	20.225011301781297 2.095286220782015 2.0285039163936935 5.061163181513543 6.9528471524422955 
14 1 Mg 0.0413163 10.1422 205.385 1.2 0	19.943023548664684 2.0198413339601706 2.1100214931097274 4.751043874099474 7.0749313458405245 
15 2 Si 2.72545 11.7535 204.439 2.4 0.227421	20.23814153619289 1.9880661581593062 1.5118887566646215 5.122651210650798 7.11248578765053 
16 3 O 1.11222 11.772 204.429 -1.2 0	20.024274996856185 2.115533422460781 2.403860733980573 5.138575125890334 6.619202534951662 
17 3 O 3.43163 10.4889 203.676 -1.2 0.634166	19.918478299232433 2.0604842466443802 1.7825073533037479 5.184959976654884 7.299630193649815 
18 3 O 3.43163 11.805 205.915 -1.2 0.0909985	20.140706553564076 1.8969789626453326 2.1870881322285123 5.136031610324845 7.1195176389325345 
19 3 O 3.42403 13.0458 203.681 -1.2 0.448884	20.01866484856581 2.1743463139030643 1.994184373071021 5.23951849219809 6.973148917358968 
20 1 Mg 4.70768 7.74242 210.261 1.2 0.00975401	19.79349966328659 1.775421797823902 2.204878735745961 4.946009115323969 6.705327424755687 
21 2 Si 2.02355 6.13108 211.207 2.4 0	19.88980207945075 1.807443275668557 2.1422492106512996 4.984220714200845 6.915041436154657 
22 3 O 3.63678 6.11262 211.218 -1.2 0.0528905	19.74651437483068 2.121576684627569 1.780536863137477 5.008761195447778 7.149496245025465 
23 3 O 1.31737 6.07955 209.731 -1.2 0	19.975455309839425 1.7228464667894923 2.0960450606799577 4.977309297033163 6.88024160603122 
24 3 O 1.31737 7.39574 211.971 -1.2 0.0512826	20.206352078862086 1.9812537295624928 2.0451179801899366 5.281955440977188 6.976195092370689 
25 3 O 1.32497 4.83885 211.965 -1.2 0.0237805	20.018776763460064 2.242189736964411 1.881567055335418 4.955127610380056 6.9661859574785305 
26 1 Mg 2.3745 8.9423 207.823 1.2 0.00962462	19.931980749233432 1.9704697119857517 1.8615837984400168 4.7276127171724065 7.0046703941469355 
27 2 Si 0.350951 10.5265 208.628 2.4 0.0276372	20.043362819219436 2.0432351618463875 1.9428780876510778 5.033982505832104 7.0792232124413 
28 3 O -1.26228 10.508 208.639 -1.2 0	20.19110179534071 1.92494937760675 1.815537777135299 4.894406876086644 6.855157844854452 
29 3 O 1.05713 10.4749 207.152 -1.2 0.0188627	20.16367477687031 2.00708979787886 2.0028380835370263 4.8843693291362955 6.903063988025523 
30 3 O 1.05713 11.7911 209.392 -1.2 0	20.01560647329847 1.7719711062169976 1.707301250270687 4.888904811815678 7.161503969217557 
31 3 O 1.04953 9.23421 209.386 -1.2 0.0705845	20.095871397188883 2.111952417610898 1.7988198431531224 5.13820668051543 7.311746276900811 
32 1 Mg 2.3745 7.42666 205.244 1.2 0.0771724	19.919938430464157 1.8471249291836362 1.7848312323225535 4.995978555482815 6.74086192589872 
33 1 Mg 2.33318 5.74681 207.964 1.2 0.0434093	20.26891189470763 1.9861161120456279 2.268085650792992 5.041537263591792 7.354963282596111 
34 2 Si 4.39805 7.35815 207.019 2.4 0.0570717	19.9979121184872 2.2870282121736714 1.8270665660351695 4.970653351306878 6.9619968961774195 
35 3 O 6.01128 7.37661 207.008 -1.2 0	20.152024086529828 1.775500299435924 2.204894452765916 5.251465732996682 6.889187736002921 
36 3 O 3.69187 6.0935 206.255 -1.2 0.223428	20.127180253841505 1.9285174540897967 2.0587513369681973 4.925706537936134 7.1182182956821185 
37 3 O 3.69187 7.40968 208.494 -1.2 0.0272194	20.185295616591553 2.562318961537861 2.1514084367466606 5.080473980987996 7.03371995304677 
38 3 O 3.69947 8.65039 206.26 -1.2 0.260159	20.298135803691405 1.8616954040326443 2.129545613221433 5.222318081932172 7.041764625437654 
39 1 Mg 4.70768 10.7737 215.419 1.2 0.000520954	19.853335514960854 1.8899511091619379 2.15872090100232 5.017485984446952 6.77196595115565 
40 2 Si 2.02355 9.16237 216.365 2.4 0	20.001328560148867 2.244792309841857 2.080883526818014 4.938418177168758 7.043705773484651 
41 3 O 3.63678 9.14391 216.376 -1.2 0.0438124	19.898270434743385 1.9395169366347238 2.208324645508906 5.100136820922428 6.986532067578428 
42 3 O 1.31737 9.11084 214.889 -1.2 0.0404768	19.900067812560224 2.1838767399940897 1.7496499046673044 5.046334623305055 6.862080618811924 
43 3 O 1.31737 10.427 217.129 -1.2 0.0407897	20.22782133585607 2.113395106739544 2.001414130615609 5.083041850482408 6.850855262638007 
44 3 O 1.32497 7.87013 217.123 -1.2 0.0129613	20.06350470906843 1.9261568286268 2.0650607215674346 5.024201363840899 6.947863923355922 
45 1 Mg 2.3745 10.4579 210.402 1.2 0	20.01961316173451 2.1053753044985504 1.9134977769577344 4.71447792430984 6.931356731117231 
46 1 Mg 2.33318 8.77809 213.122 1.2 0.000560976	20.08651070579231 1.948677280454384 2.003559325584916 4.8209844506010295 6.972465675887972 
47 2 Si 4.39805 10.3894 212.177 2.4 0.00120844	20.090532007203954 1.951127141052161 2.233738102369907 4.909919293676826 6.853735658510075 
48 3 O 6.01128 10.4079 212.166 -1.2 0.0463999	20.151811930136375 2.067729612302153 2.188680134033703 5.048997299265379 6.845284113605501 
49 3 O 3.69187 9.12478 211.413 -1.2 0.0454247	20.13681926176338 2.3009676404221917 2.1467188962129304 5.026957247848099 7.077691771995366 
50 3 O 3.69187 10.441 213.652 -1.2 0.0415762	19.87016819429903 1.8187157863198007 2.2556229785541255 4.859768930789706 6.796452193437158 
51 3 O 3.69947 11.6817 211.418 -1.2 0.0229152	20.025006876836798 2.0943903224313467 1.9821141720528055 4.911858567818871 6.853728107845696 
52 1 Mg 2.33318 11.8094 218.28 1.2 0.000465017	20.220292537370984 1.8342208138579321 1.8835198017754402 4.749720760961805 7.212377193354205 
53 1 Mg 2.41582 0.315769 207.682 1.2 0.0345189	20.084354459712163 2.1689818058192585 2.0991793167691863 5.232684552114723 7.123022652607469 
54 1 Mg 0.0413163 1.35144 210.543 1.2 0.00442491	19.855395467562968 1.7858751994183801 2.162845435752409 5.393918099254673 6.963586310056937 
55 2 Si 2.72545 2.96278 209.598 2.4 0.0176849	19.919443395870736 2.05604304784106 1.978802006042385 4.610311438324978 6.902575349471848 
56 3 O 1.11222 2.98124 209.587 -1.2 0.0596853	19.89807002164424 1.9532360196941452 2.171968341015561 5.018506892963124 7.0624358759093235 
57 3 O 3.43163 1.69813 208.834 -1.2 0	19.96889644212306 1.9958431734725663 1.9469561457350564 4.614850651610243 6.898712164616368 
58 3 O 3.43163 3.01431 211.073 -1.2 0.0526492	20.270983747389597 2.198704616240916 1.8936744671465922 4.833651446055214 7.1502103671952995 
59 3 O 3.42403 4.25502 208.839 -1.2 0.0687987	20.127473534738545 2.0505174321721404 2.0449708491110345 4.992890258546908 7.078864661431258 
60 1 Mg 2.3745 0.151564 212.981 1.2 0.00115772	19.99466038205613 1.9045821666137475 2.1354256932702733 4.931815505397087 6.383726798513517 
61 1 Mg 2.41582 3.34706 212.84 1.2 0.000206899	19.983430044929268 2.134035710865245 1.7225226461505172 4.816837429734133 7.020039807004545 
62 2 Si 0.350951 1.73572 213.786 2.4 0	19.96779611240747 1.8582121320127634 2.0905281524869053 5.116618196293761 6.95178652836819 
63 3 O -1.26228 1.71725 213.797 -1.2 0.0441532	19.908262178692706 1.887177792089439 1.8686751095362146 4.811018428083587 6.805031275819394 
64 3 O 1.05713 1.68418 212.31 -1.2 0.0421509	19.94789238512946 1.9684266622309996 1.9387139912795899 5.072415398973043 7.234590591354138 
65 3 O 1.05713 3.00037 214.55 -1.2 0.0409948	19.95404040563695 2.0023360609855954 2.3277380507924375 5.202820160998254 7.068195742849141 
66 3 O 1.04953 0.443477 214.544 -1.2 0.0127509	19.867212661914166 2.0815164587782373 2.213140271909553 5.1131316453442635 7.2498000645732805 
67 1 Mg 0.0413163 4.38273 215.701 1.2 0.000485169	19.63599664848377 2.001642531566038 2.1457362861373226 5.213421134155152 6.9635118764274235 
68 2 Si 2.72545 5.99407 214.756 2.4 0	19.864431197435547 1.9543759737750335 2.1048177447965073 4.959328821414863 7.259105590770766 
69 3 O 1.11222 6.01253 214.745 -1.2 0.0440096	19.94569070171475 2.106824170208608 2.0810910477744766 5.10112365808643 6.919513374713567 
70 3 O 3.43163 4.72942 213.992 -1.2 0.0421136	19.880171074069615 2.120663185241352 1.9762330596488826 4.83081101013726 7.034181309794028 
71 3 O 3.43163 6.0456 216.231 -1.2 0.0408772	19.8680126863511 1.8726297742076798 2.0806895794560343 4.998482016143151 6.9519624755751295 
72 3 O 3.42403 7.28631 213.997 -1.2 0.014091	20.133318010542226 1.9372764523814447 2.138513002211778 5.029488723729256 7.086640310684133 
73 1 Mg 4.70768 1.98298 220.578 1.2 0.000522494	20.18545259883526 1.9511916928106114 2.1011758569755026 4.994690556158523 7.061076309186195 
74 2 Si 2.02355 0.371636 221.523 2.4 0	19.98706784458013 1.9198761816667094 2.019005666850644 4.866026843904719 7.037879246804299 
75 3 O 3.63678 0.353175 221.534 -1.2 0.0438761	19.781488720530263 2.1416081425646887 2.046228185398206 5.288606029038189 6.942029534241011 
76 3 O 1.31737 0.320104 220.047 -1.2 0.040606	20.166035779437827 2.4042143711778285 2.102029049753524 4.8991521512756515 6.974336656319886 
77 3 O 1.31737 1.63629 222.287 -1.2 0.0410188	19.656990688859363 2.064847459093831 2.2099615972891575 4.994481962827708 6.938641581252204 
78 3 O 1.32497 -0.920602 222.281 -1.2 0.0130029	20.08417585659399 2.0564379162450104 2.268165084410851 4.920888724372331 7.386808420069071 
79 1 Mg 2.3745 3.18285 218.139 1.2 0.00110809	20.153809257566422 1.7942912454411433 1.6962824841123574 5.196547406201234 7.0384933338912035 
80 1 Mg 2.41582 6.37835 217.999 1.2 0.000514627	20.096714239655494 2.135547107483003 2.069584951606107 4.925425391104923 7.295696693767325 
81 2 Si 0.350951 4.767 218.944 2.4 0	19.69944576557659 2.1423846034304836 2.0016482744403192 5.1782227026504914 6.719762513054319 
82 3 O -1.26228 4.74854 218.955 -1.2 0.0438643	20.13117675539642 1.94617211731631 1.9244171081640067 5.129424654457847 6.656146175141328 
83 3 O 1.05713 4.71547 217.468 -1.2 0.0405572	20.09195127815975 2.134994804809804 1.931145004110718 5.101735757004832 7.0431568382510035 
84 3 O 1.05713 6.03166 219.708 -1.2 0.0409127	19.74437511691194 2.057698918778716 2.1274199332770123 5.020529119235091 7.03560636035928 
85 3 O 1.04953 3.47477 219.702 -1.2 0.0129038	20.17261355693353 2.347052345234469 2.0367663351300496 5.331039106050489 6.826985017021826 
86 1 Mg 2.3745 1.66721 215.56 1.2 0.00163399	19.913990885921535 1.8999622629999955 1.9657731706022041 5.255554297804263 7.193290236550177 
87 2 Si 4.39805 1.5987 217.335 2.4 0	20.02066212406943 2.359033931235838 1.9668222493708645 4.905840719922505 7.434220455558029 
88 3 O 6.01128 1.61716 217.324 -1.2 0.0439628	19.695951865047252 2.1432318864384743 2.2642350852848665 4.960405660254936 7.063225480862723 
89 3 O 3.69187 0.334048 216.571 -1.2 0.0415286	20.12617225045494 1.8195982942959523 2.071029814576856 5.1076703078117385 6.975574993931206 
90 3 O 3.69187 1.65023 218.81 -1.2 0.0409501	19.930889652314335 1.9065776652242608 1.7916565458762177 4.860153133532227 6.540805490760222 
91 3 O 3.69947 2.89094 216.576 -1.2 0.0124654	20.0867433971624 2.271651542112213 2.1180933032770124 5.178782549156923 7.107297627667727 
92 1 Mg 0.0413163 7.41402 220.859 1.2 0.000476608	20.04655359979624 2.279783868148391 1.817041238350797 5.088333344472391 7.113195288951019 
93 2 Si 2.72545 9.02536 219.914 2.4 0	20.186150377394718 2.1718901215281905 1.6623494228640865 5.0966818632538216 7.267349297201611 
94 3 O 1.11222 9.04382 219.903 -1.2 0.0438961	19.649191286891856 1.7638397041520966 1.8208400312848183 5.323095429988861 6.801870003339217 
95 3 O 3.43163 7.7607 219.15 -1.2 0.0414208	20.14090092532895 2.0251273927068705 1.9546913359998919 4.490069988914546 6.894717056767087 
96 3 O 3.43163 9.07689 221.389 -1.2 0.0411146	20.069595427868375 1.9067072673222714 2.2090322402689395 5.125445584274911 6.788293064556205 
97 3 O 3.42403 10.3176 219.155 -1.2 0.0123892	19.857995692566107 2.1531170895966203 1.8829978019848317 5.18853182476469 6.971507203284624 
98 1 Mg 4.70768 5.01427 225.736 1.2 0.000462144	19.842206987857384 1.8597798462194588 2.074712835160705 4.913540413446443 7.128699606132843 
99 2 Si 2.02355 3.40292 226.681 2.4 0	19.97832251392249 1.6980513352213897 2.3503574036008894 5.118201459965812 6.719708647445876 
100 3 O 3.63678 3.38446 226.692 -1.2 0.0438064	19.899367604313653 2.290022193220733 1.8987130645591872 5.078934988645997 7.003995304005198 
101 3 O 1.31737 3.35139 225.205 -1.2 0.0406538	20.12634213236004 1.9545189501108728 1.840325653395644 4.838385111839786 6.868038837785206 
102 3 O 1.31737 4.66758 227.445 -1.2 0.0409621	20.221602508480498 2.120546752521965 1.6848225211947743 5.145300269392273 6.787213801921712 
103 3 O 1.32497 2.11069 227.439 -1.2 0.013006	20.1795551552787 2.2434967975072886 2.0298407037049695 5.189900093865281 7.263923659691745 
104 1 Mg 2.3745 6.21414 223.297 1.2 0.00111297	20.094033654866436 2.0976682862578517 2.1044600608556125 4.870582582791159 6.86620821882361 
105 1 Mg 2.41582 9.40963 223.157 1.2 0.000488923	20.08230036505391 2.0349311106340955 1.9323730023150258 4.697997005695342 7.258202586717565 
106 2 Si 0.350951 7.79829 224.102 2.4 0	20.05263664223847 1.974021520522213 1.8648977326194662 5.020766033240946 6.9038676373759555 
107 3 O -1.26228 7.77983 224.113 -1.2 0.04396	20.05853244008985 2.1591783461748735 2.2848161840112873 5.183241624315166 7.005712076055818 
108 3 O 1.05713 7.74676 222.626 -1.2 0.0406293	20.143903131441352 2.1425950448034827 2.125603029274372 4.904051513090334 7.089880148401917 
109 3 O 1.05713 9.06294 224.866 -1.2 0.040909	19.91151193818379 2.0641545270284203 1.718798325652228 5.432956290157738 7.07259872336651 
110 3 O 1.04953 6.50605 224.86 -1.2 0.0129436	20.137426079405174 2.1423619896839754 2.003086973329803 5.066688692258225 7.1550808030021065 
111 1 Mg 2.3745 4.6985 220.718 1.2 0.00158464	19.90666255981596 2.27337924595378 1.957392942593253 4.876697701620179 6.941273048075755 
112 1 Mg 2.33318 3.01865 223.438 1.2 0.000472301	19.923839097086898 2.1849750266019714 2.047207991228038 4.991410631727161 6.844944471567882 
113 2 Si 4.39805 4.62999 222.493 2.4 0	20.029167039682658 2.059915196557359 2.2047418305693736 4.960267061708285 7.088637266396227 
114 3 O 6.01128 4.64845 222.482 -1.2 0.0438981	19.79875234140533 1.9308721477819928 1.9667778551226596 4.857317497687858 7.008053262884741 
115 3 O 3.69187 3.36534 221.729 -1.2 0.0413682	20.083253723671852 1.7981489653488316 2.3584531625032814 5.004997597486329 6.975229626146449 
116 3 O 3.69187 4.68152 223.968 -1.2 0.0412467	19.993925909360964 1.7938826460533033 2.227071618762815 5.126044398268214 6.992601733072584 
117 3 O 3.69947 5.92223 221.735 -1.2 0.0132254	19.903334275740722 1.744943881516433 1.7704400790350314 4.62514463165779 6.853087692449994 
118 1 Mg 0.0413163 10.4453 226.017 1.2 0.0004642	20.004495901422167 1.946094557310492 1.9641147364974036 4.964475705272075 7.063984599445746 
119 1 Mg 4.70768 8.04555 230.894 1.2 0.000433959	20.092113294575054 2.0165302514472714 1.9042895082679911 4.944835442210427 6.845361955701194 
120 2 Si 2.02355 6.43421 231.839 2.4 0	19.936925984470083 1.8297223583399074 2.009141677097481 4.795844848448945 6.846851436292213 
121 3 O 3.63678 6.41575 231.85 -1.2 0.0437474	19.998051663795415 1.7977336626498368 1.8209333722618026 5.054751004454224 7.112446516477545 
122 3 O 1.31737 6.38268 230.363 -1.2 0.0403452	20.07341331918022 1.983964880940974 2.049654101908565 4.981533639891401 6.978645359973439 
123 3 O 1.31737 7.69887 232.603 -1.2 0.0411233	19.91661399852061 2.2596564814755586 2.128144592486143 5.158796356016599 6.812056140028633 
124 3 O 1.32497 5.14197 232.597 -1.2 0.0128424	20.160967231454524 2.048057423073205 2.2932109971597514 5.0536106079175855 7.183319549896526 
125 1 Mg 2.3745 9.24543 228.455 1.2 0.00100447	20.09704548107006 2.1238334934326497 2.310462774366097 5.10237565856205 6.923866278802451 
126 2 Si 0.350951 10.8296 229.26 2.4 0	19.9117681261387 2.129759482476393 1.8973246970258257 5.108740384361975 7.168299775165517 
127 3 O -1.26228 10.8111 229.271 -1.2 0.0437156	20.20260508751956 1.6783078422513609 1.744678180630134 4.99625082813378 7.231815623195154 
128 3 O 1.05713 10.778 227.784 -1.2 0.0404837	20.21095610023677 2.3648440809072437 1.7053964209914603 5.352605777072773 7.177479409254216 
129 3 O 1.05713 12.0942 230.024 -1.2 0.0410515	19.981327270199206 2.205546868459605 2.186710300043618 4.920843497656517 6.808038722425629 
130 3 O 1.04953 9.53734 230.018 -1.2 0.0128857	19.85593357650876 1.886771647771773 1.8646657218861453 4.96103986449541 7.0358281311616935 
131 1 Mg 2.3745 7.72978 225.876 1.2 0.00160623	19.943345401793195 2.0359673372676412 1.7940667325969009 5.053920145790144 7.1564686827538875 
132 1 Mg 2.33318 6.04994 228.596 1.2 0.000433135	19.96132835042237 2.3403486927517165 1.6121663764172791 4.990927520718097 6.880890793819524 
133 2 Si 4.39805 7.66128 227.651 2.4 0	19.848456722537904 1.8867350333816342 1.9708074177770694 4.69022438653998 6.83519682108976 
134 3 O 6.01128 7.67974 227.64 -1.2 0.0437443	19.849027567748113 2.0607755872364573 2.086487878907489 5.173054459254837 7.187613347177846 
135 3 O 3.69187 6.39662 226.887 -1.2 0.0411214	20.103390172656493 2.083663154067119 1.9376649717634877 4.840186532494577 7.0691433233370145 
136 3 O 3.69187 7.71281 229.127 -1.2 0.0403466	19.830356292336457 1.9466216352789225 2.124873249498245 5.107994582732285 6.679524663402604 
137 3 O 3.69947 8.95352 226.893 -1.2 0.0128299	19.939505268328876 2.230212102741849 2.1338264772538102 5.378946360680175 7.1495074156111755 
138 1 Mg 4.70768 11.0768 236.052 1.2 0.000470227	19.81306544101874 1.8634973325727338 1.9819574781608955 5.113441154575891 6.945538624473208 
139 2 Si 2.02355 9.4655 236.997 2.4 0	20.004847223175847 2.3422768803042056 2.0514233982870773 4.7761718557847335 7.007331822672634 
140 3 O 3.63678 9.44704 237.008 -1.2 0.0438972	20.155531518538847 1.9840158937919126 2.129073904634328 4.699903760486318 6.8788051989749 
141 3 O 1.31737 9.41397 235.522 -1.2 0.0412579	19.97978462296018 2.001598254732203 2.3887104991937624 5.13175942874495 7.303898085460326 
142 3 O 1.31737 10.7302 237.761 -1.2 0.0413363	19.718263524833958 2.0325520674483957 1.8732596060904152 4.903460035745243 6.860874743947163 
143 3 O 1.32497 8.17326 237.755 -1.2 0.0132283	20.09338763653202 1.8138932951867743 2.198972442862898 5.006064586249494 6.839445306694337 
144 1 Mg 2.3745 10.7611 231.035 1.2 0.00157489	19.888832825512175 1.9140556564919715 2.0582704380898655 5.208548259950801 6.97088692412515 
145 1 Mg 2.33318 9.08122 233.754 1.2 0.000461797	19.998869091177802 1.9735274989695166 1.818657969945021 4.957388053770206 6.944041106489493 
146 2 Si 4.39805 10.6926 232.809 2.4 0	20.170373918250654 2.198348678357325 2.1008154744004894 5.356814084797755 6.970306986069233 
147 3 O 6.01128 10.711 232.798 -1.2 0.043819	19.922803334358047 2.0556710643501703 2.029131461086493 4.980758039645391 7.2950355886673615 
148 3 O 3.69187 9.42791 232.045 -1.2 0.0409571	19.906735921435423 1.6869323870735173 1.9909915790866104 4.885023967482935 6.818063678200195 
149 3 O 3.69187 10.7441 234.285 -1.2 0.0406498	20.070017556200156 1.9978805085185993 2.1748349575461194 5.295711997245871 7.090679195934859 
150 3 O 3.69947 11.9848 232.051 -1.2 0.0129822	20.211536876611977 2.372712413487379 2.0985931651140617 5.400894002026187 7.054070258843436 
151 2 Si 2.72545 0.234622 225.072 2.4 0	19.99535532808799 1.9442699790894002 1.903205365184555 4.799482669484084 7.067074340550651 
152 3 O 1.11222 0.253082 225.061 -1.2 0.0438484	19.91573261572869 1.8527939951994667 1.958880088487323 4.926094500384304 7.146793393672771 
153 3 O 3.43163 -1.03003 224.308 -1.2 0.0412545	19.93673922210643 2.5515056150777737 1.8509006631735203 5.154722103048567 7.410508869596071 
154 3 O 3.43163 0.286154 226.548 -1.2 0.04029	19.75289426335932 1.9612390963087778 1.7945233075862652 4.989838688628557 7.021276004491942 
155 3 O 3.42403 1.52686 224.314 -1.2 0.0131528	20.172345177818638 1.8865732819105097 2.2412889581433104 5.28013642515262 6.978167572501218 
156 1 Mg 2.41582 0.618898 228.315 1.2 0.000471615	19.618404170482602 1.9957366881582141 2.4366221198966698 4.73033492320585 7.138620783255469 
157 1 Mg 0.0413163 1.65457 231.175 1.2 0.000472261	20.1126591298753 1.800623148151474 2.2201299920629824 5.078930184361129 6.9482782024842376 
158 2 Si 2.72545 3.26591 230.23 2.4 0	19.964203289741146 1.9873757955813278 2.2167132826928917 5.167105216020247 6.907964580045688 
159 3 O 1.11222 3.28437 230.219 -1.2 0.0437268	20.044567734492443 2.0568676893392364 2.1444535222472516 5.2364401595787315 7.324422298741006 
160 3 O 3.43163 2.00126 229.466 -1.2 0.0410344	19.87421435463072 1.8222957298485256 2.0983453832909964 5.207784505817432 7.075162085443965 
161 3 O 3.43163 3.31744 231.706 -1.2 0.0404998	20.15980212677336 2.1602328268667086 2.1248497614305024 5.236190108641224 6.590205130567325 
162 3 O 3.42403 4.55815 229.472 -1.2 0.0128755	20.050649284569545 1.87565676390805 1.9232572109049997 4.744956140706994 6.968362099659885 
163 1 Mg 2.3745 0.454693 233.614 1.2 0.00104314	19.94594011042513 1.8220580764988932 2.1501041726298085 4.853605488875117 6.908186354354872 
164 1 Mg 2.41582 3.65019 233.473 1.2 0.000461361	20.08497685704366 1.894001189627131 2.2432148164559 4.850666828674811 6.779775764571455 
165 2 Si 0.350951 2.03884 234.418 2.4 0	19.97247401086819 2.270305370396693 2.2963890478343822 4.9876997072576765 7.290385192651012 
166 3 O -1.26228 2.02038 234.429 -1.2 0.0438381	20.015769698859724 1.8145614411835462 1.9494836608735993 4.838614758438145 7.339697046777494 
167 3 O 1.05713 1.98731 232.942 -1.2 0.0402788	19.80660903214048 2.2941807091144635 1.9155816119017175 5.087713865241115 6.98456073790576 
168 3 O 1.05713 3.3035 235.182 -1.2 0.0412585	20.065919843902467 1.908027638521379 2.281936237918832 5.270017514918072 7.256410831598425 
169 3 O 1.04953 0.746606 235.176 -1.2 0.0131418	19.66975513679981 2.008477540595069 1.833067646826004 4.887085639623803 6.951984053481752 
170 1 Mg 0.0413163 4.68586 236.333 1.2 0.000487806	19.841843199162337 1.91464721489961 2.097070450875802 4.73851854036692 6.940245290314487 
171 2 Si 2.72545 6.2972 235.388 2.4 0	20.315020704680407 2.197923674075575 2.0014698205543753 5.104328542325031 7.043279833511014 
172 3 O 1.11222 6.31566 235.377 -1.2 0.0439635	20.067416094014398 1.8750251584964448 2.0143787226779097 5.040204047613095 7.014246439862454 
173 3 O 3.43163 5.03254 234.624 -1.2 0.0409132	20.16174687342461 2.519292615825594 2.2059278065349233 4.892381643730276 6.962193692169008 
174 3 O 3.43163 6.34873 236.864 -1.2 0.0406272	20.157196876187836 2.0341488500357463 1.9275191588792138 5.18080587877364 7.00977744401303 
175 3 O 3.42403 7.58944 234.63 -1.2 0.0129481	20.09930196710517 2.0712529519264082 2.0189553103551905 5.208390737397395 7.169912616868264 
176 1 Mg 4.70768 2.28611 241.21 1.2 0.000463889	20.041661512474416 2.33389290349325 1.8524227671439433 5.102558608512725 7.222119375867521 
177 2 Si 2.02355 0.674765 242.155 2.4 0	19.709731899189332 2.0928372944597107 1.575922209215074 4.940381300029767 7.114415320255879 
178 3 O 3.63678 0.656304 242.166 -1.2 0.0439602	19.752768480896037 2.19544178068175 1.6348875557713491 4.772806791344113 6.787341121745932 
179 3 O 1.31737 0.623233 240.68 -1.2 0.0409386	19.917663476719405 2.033165713980184 1.8676579585216053 4.985753585733594 6.566328659175992 
180 3 O 1.31737 1.93942 242.919 -1.2 0.0415345	20.129172256129472 1.940114916803416 2.2133323898414226 4.905095824831543 7.010741617878275 
181 3 O 1.32497 -0.617473 242.914 -1.2 0.0124642	19.87128733306495 1.8820002038923898 1.716823045564428 5.1336948939414215 7.205832101968318 
182 1 Mg 2.3745 3.48598 238.772 1.2 0.00110813	20.005824833623798 1.9645998640058695 1.7391255510838355 4.955252361315239 6.624622259934266 
183 1 Mg 2.41582 6.68147 238.631 1.2 0.000476875	20.089301906383685 1.84692681536261 1.8992750095782844 4.740699793004604 7.030194886911557 
184 2 Si 0.350951 5.07013 239.576 2.4 0	20.191808741305785 1.82665143884692 2.1671022646011844 5.057853920877802 7.250049134739539 
185 3 O -1.26228 5.05167 239.587 -1.2 0.0438995	19.95210821603716 2.1189412601349504 1.8985071152545392 5.185516363314357 6.625743460044838 
186 3 O 1.05713 5.0186 238.101 -1.2 0.0411167	20.19581286732827 1.8292059047166347 1.8889740892157896 5.158550746561519 7.055517485608761 
187 3 O 1.05713 6.33479 240.34 -1.2 0.0414275	20.237657707437585 2.181096710981313 2.1463885905544973 5.164830207170937 7.105717573063896 
188 3 O 1.04953 3.77789 240.335 -1.2 0.0124127	20.011504414275393 1.9750692078282448 2.1766625529023313 5.093302491475839 6.97605273119373 
189 1 Mg 2.3745 1.97034 236.193 1.2 0.00161481	20.021283700497094 2.0587903119665856 2.1200905871436397 4.791449224269139 6.875959854675552 
190 1 Mg 2.33318 0.290488 238.912 1.2 0.000523573	20.042317540684312 1.9283862233007998 2.0968300232636885 5.002181459676392 7.047886960008654 
191 2 Si 4.39805 1.90183 237.967 2.4 0	19.815800418007573 2.132901684390024 1.8841085980796892 5.021063276183715 6.863833701444026 
192 3 O 6.01128 1.92029 237.956 -1.2 0.0438802	20.26484660976079 2.3873407868773175 1.8911009664260796 4.803108724768368 7.254436720338666 
193 3 O 3.69187 0.637177 237.203 -1.2 0.0410126	20.052078797821167 2.195048935819736 2.0430388389597756 4.887853927311088 6.806117866202789 
194 3 O 3.69187 1.95336 239.443 -1.2 0.0406152	20.099279043517466 1.9421785066947725 1.996219896052719 5.153789451927019 6.882054411100306 
195 3 O 3.69947 3.19407 237.209 -1.2 0.0130237	20.115834817844036 1.8219300453057092 1.8847578385181156 4.929142356764772 6.69992877047634 
196 1 Mg 0.0413163 7.71714 241.491 1.2 0.00051214	20.081392295827182 1.9319436615810914 2.0044242780493993 5.175071262810067 7.211395582609905 
197 2 Si 2.72545 9.32849 240.546 2.4 0	19.878082691015805 1.9460780287254063 1.917071237788892 5.043556970889006 7.274028613595659 
198 3 O 1.11222 9.34695 240.535 -1.2 0.0438538	20.05535519510045 1.9284141143373028 2.3769491362651034 4.8831107873153945 6.946947294658878 
199 3 O 3.43163 8.06383 239.782 -1.2 0.0409176	19.997405833643338 1.8910277551946209 1.9398297894220018 4.93138512871048 7.023224423536484 
200 3 O 3.43163 9.38002 242.022 -1.2 0.040559	20.010678277001418 1.7597383108149116 1.792895579953627 5.048527922758463 7.386541112501231 
201 3 O 3.42403 10.6207 239.788 -1.2 0.0129249	20.067842534994384 1.7344069557702424 1.80130363574865 5.038852005872979 6.817803821167656 
202 1 Mg 4.70768 5.31739 246.368 1.2 0.000497895	20.062910417796505 1.8608708843559014 1.8053507309948496 4.989362249025671 6.8003220483735 
203 2 Si 2.02355 3.70605 247.313 2.4 0	19.92517018570749 2.022690402537974 1.9914780365173645 4.794105672827682 6.913576202798741 
204 3 O 3.63678 3.68759 247.324 -1.2 0.0440216	19.923080759456177 2.0352817385883144 2.021397502164246 5.138205492524403 7.213006647105075 
205 3 O 1.31737 3.65452 245.838 -1.2 0.040812	20.017435807363995 1.7320821717300494 1.9628743981231465 5.2250282329637034 6.95294054681957 
206 3 O 1.31737 4.97071 248.077 -1.2 0.0415969	19.96264655747563 1.6885465672069813 1.822631788085577 4.614351388549187 7.218699714335687 
207 3 O 1.32497 2.41381 248.072 -1.2 0.0126592	20.286993474407748 1.8034811194409919 2.2570300820420246 5.1293668859914945 7.061257795816207 
208 1 Mg 2.3745 6.51727 243.93 1.2 0.00112544	19.72642062313202 2.1021729344108007 1.9729122488765083 4.760398725176916 6.783656192181571 
209 1 Mg 2.41582 9.71276 243.789 1.2 0.000483796	19.967531699449424 2.3463540524613182 2.158598714749586 4.873339799905089 7.089522044675639 
210 2 Si 0.350951 8.10142 244.734 2.4 0	20.179740142693557 2.268436929641182 2.1456347437373315 4.894934727084866 7.1042071766882495 
211 3 O -1.26228 8.08296 244.745 -1.2 0.0440156	20.04713409145686 2.0709788986511124 2.050485252144821 4.945009173471556 7.241711786010684 
212 3 O 1.05713 8.04989 243.259 -1.2 0.0408852	19.78672223962514 2.0433834420100467 1.7225502527857035 4.764299039036346 7.052637485884217 
213 3 O 1.05713 9.36607 245.498 -1.2 0.0415532	19.88578830163357 2.2688404922704315 2.0262981841724503 5.296949263102087 7.029818766248383 
214 3 O 1.04953 6.80918 245.493 -1.2 0.0126583	20.00141309964833 2.030819395435609 2.016798078865779 5.216456656844266 6.957221467375797 
215 1 Mg 2.3745 5.00163 241.351 1.2 0.00160581	20.265894583005295 2.290744960617767 2.036130182252811 5.080997773345401 6.956797102380539 