ITEM: TIMESTEP
0
ITEM: NUMBER OF ATOMS
2184
ITEM: BOX BOUNDS pp pp pp
0	4.749
0	11.822
0	405.33
ITEM: ATOMS id type element xu yu zu q ClusterId[1] ClusterId[2] S[1] S[2] S[3] S[4] S[5]
1 1 Mg 4.70768 4.71114 205.103 1.2 1 1 19.792 1.94257 2.22655 4.89021 7.16121
2 2 Si 2.02355 3.0998 206.049 2.4 1 1 19.8738 1.83968 2.07834 5.18022 7.05398
3 3 O 3.63678 3.08133 206.06 -1.2 1 1 19.8998 2.03315 1.95697 4.72181 7.15058
4 3 O 1.31737 3.04826 204.573 -1.2 1 1 19.8152 1.94686 2.09004 5.07867 6.66857
5 3 O 1.31737 4.36445 206.813 -1.2 1 0 19.9079 1.85544 1.68452 4.47563 7.09186
6 3 O 1.32497 1.80756 206.807 -1.2 1 1 19.9674 2.17779 2.09002 5.14042 6.61349
7 1 Mg 2.3745 5.91101 202.665 1.2 1 1 19.903 2.11378 2.11446 5.19154 7.10812
8 2 Si 0.350951 7.49516 203.47 2.4 1 0 19.8193 1.84368 1.81334 4.57856 6.77305
9 3 O -1.26228 7.4767 203.481 -1.2 1 0 20.0054 2.02971 1.68839 5.03995 6.77913
10 3 O 1.05713 7.44363 201.994 -1.2 1 1 19.7788 1.98288 2.23789 4.97836 6.70652
11 3 O 1.05713 8.75982 204.234 -1.2 1 0 20.1369 2.10717 1.92905 4.86152 7.30966
12 3 O 1.04953 6.20292 204.228 -1.2 1 1 19.9942 1.97222 1.78204 4.70664 6.93801
13 1 Mg 2.33318 2.71552 202.806 1.2 1 1 20.225 2.09529 2.0285 5.06116 6.95285
14 1 Mg 0.0413163 10.1422 205.385 1.2 1 1 19.943 2.01984 2.11002 4.75104 7.07493
15 2 Si 2.72545 11.7535 204.439 2.4 1 0 20.2381 1.98807 1.51189 5.12265 7.11249
16 3 O 1.11222 11.772 204.429 -1.2 1 0 20.0243 2.11553 2.40386 5.13858 6.6192
17 3 O 3.43163 10.4889 203.676 -1.2 1 0 19.9185 2.06048 1.78251 5.18496 7.29963
18 3 O 3.43163 11.805 205.915 -1.2 1 1 20.1407 1.89698 2.18709 5.13603 7.11952
19 3 O 3.42403 13.0458 203.681 -1.2 1 1 20.0187 2.17435 1.99418 5.23952 6.97315
20 1 Mg 4.70768 7.74242 210.261 1.2 1 0 19.7935 1.77542 2.20488 4.94601 6.70533
21 2 Si 2.02355 6.13108 211.207 2.4 1 1 19.8898 1.80744 2.14225 4.98422 6.91504
22 3 O 3.63678 6.11262 211.218 -1.2 1 1 19.7465 2.12158 1.78054 5.00876 7.1495
23 3 O 1.31737 6.07955 209.731 -1.2 1 1 19.9755 1.72285 2.09605 4.97731 6.88024
24 3 O 1.31737 7.39574 211.971 -1.2 1 1 20.2064 1.98125 2.04512 5.28196 6.9762
25 3 O 1.32497 4.83885 211.965 -1.2 1 1 20.0188 2.24219 1.88157 4.95513 6.96619
26 1 Mg 2.3745 8.9423 207.823 1.2 1 1 19.932 1.97047 1.86158 4.72761 7.00467
27 2 Si 0.350951 10.5265 208.628 2.4 1 1 20.0434 2.04324 1.94288 5.03398 7.07922
28 3 O -1.26228 10.508 208.639 -1.2 1 1 20.1911 1.92495 1.81554 4.89441 6.85516
29 3 O 1.05713 10.4749 207.152 -1.2 1 1 20.1637 2.00709 2.00284 4.88437 6.90306
30 3 O 1.05713 11.7911 209.392 -1.2 1 1 20.0156 1.77197 1.7073 4.8889 7.1615
31 3 O 1.04953 9.23421 209.386 -1.2 1 1 20.0959 2.11195 1.79882 5.13821 7.31175
32 1 Mg 2.3745 7.42666 205.244 1.2 1 1 19.9199 1.84712 1.78483 4.99598 6.74086
33 1 Mg 2.33318 5.74681 207.964 1.2 1 0 20.2689 1.98612 2.26809 5.04154 7.35496
34 2 Si 4.39805 7.35815 207.019 2.4 1 1 19.9979 2.28703 1.82707 4.97065 6.962
35 3 O 6.01128 7.37661 207.008 -1.2 1 1 20.152 1.7755 2.20489 5.25147 6.88919
36 3 O 3.69187 6.0935 206.255 -1.2 1 1 20.1272 1.92852 2.05875 4.92571 7.11822
37 3 O 3.69187 7.40968 208.494 -1.2 1 0 20.1853 2.56232 2.15141 5.08047 7.03372
38 3 O 3.69947 8.65039 206.26 -1.2 1 1 20.2981 1.8617 2.12955 5.22232 7.04176
39 1 Mg 4.70768 10.7737 215.419 1.2 1 1 19.8533 1.88995 2.15872 5.01749 6.77197
40 2 Si 2.02355 9.16237 216.365 2.4 1 1 20.0013 2.24479 2.08088 4.93842 7.04371
41 3 O 3.63678 9.14391 216.376 -1.2 1 1 19.8983 1.93952 2.20832 5.10014 6.98653
42 3 O 1.31737 9.11084 214.889 -1.2 1 1 19.9001 2.18388 1.74965 5.04633 6.86208
43 3 O 1.31737 10.427 217.129 -1.2 1 1 20.2278 2.1134 2.00141 5.08304 6.85086
44 3 O 1.32497 7.87013 217.123 -1.2 1 1 20.0635 1.92616 2.06506 5.0242 6.94786
45 1 Mg 2.3745 10.4579 210.402 1.2 1 1 20.0196 2.10538 1.9135 4.71448 6.93136
46 1 Mg 2.33318 8.77809 213.122 1.2 1 1 20.0865 1.94868 2.00356 4.82098 6.97247
47 2 Si 4.39805 10.3894 212.177 2.4 1 1 20.0905 1.95113 2.23374 4.90992 6.85374
48 3 O 6.01128 10.4079 212.166 -1.2 1 1 20.1518 2.06773 2.18868 5.049 6.84528
49 3 O 3.69187 9.12478 211.413 -1.2 1 1 20.1368 2.30097 2.14672 5.02696 7.07769
50 3 O 3.69187 10.441 213.652 -1.2 1 1 19.8702 1.81872 2.25562 4.85977 6.79645
51 3 O 3.69947 11.6817 211.418 -1.2 1 1 20.025 2.09439 1.98211 4.91186 6.85373
52 1 Mg 2.33318 11.8094 218.28 1.2 1 0 20.2203 1.83422 1.88352 4.74972 7.21238
53 1 Mg 2.41582 0.315769 207.682 1.2 1 1 20.0844 2.16898 2.09918 5.23268 7.12302
54 1 Mg 0.0413163 1.35144 210.543 1.2 1 0 19.8554 1.78588 2.16285 5.39392 6.96359
55 2 Si 2.72545 2.96278 209.598 2.4 1 1 19.9194 2.05604 1.9788 4.61031 6.90258
56 3 O 1.11222 2.98124 209.587 -1.2 1 1 19.8981 1.95324 2.17197 5.01851 7.06244
57 3 O 3.43163 1.69813 208.834 -1.2 1 1 19.9689 1.99584 1.94696 4.61485 6.89871
58 3 O 3.43163 3.01431 211.073 -1.2 1 1 20.271 2.1987 1.89367 4.83365 7.15021
59 3 O 3.42403 4.25502 208.839 -1.2 1 1 20.1275 2.05052 2.04497 4.99289 7.07886
60 1 Mg 2.3745 0.151564 212.981 1.2 -1 0 19.9947 1.90458 2.13543 4.93182 6.38373
61 1 Mg 2.41582 3.34706 212.84 1.2 1 1 19.9834 2.13404 1.72252 4.81684 7.02004
62 2 Si 0.350951 1.73572 213.786 2.4 1 1 19.9678 1.85821 2.09053 5.11662 6.95179
63 3 O -1.26228 1.71725 213.797 -1.2 1 1 19.9083 1.88718 1.86868 4.81102 6.80503
64 3 O 1.05713 1.68418 212.31 -1.2 1 1 19.9479 1.96843 1.93871 5.07242 7.23459
65 3 O 1.05713 3.00037 214.55 -1.2 1 1 19.954 2.00234 2.32774 5.20282 7.0682
66 3 O 1.04953 0.443477 214.544 -1.2 1 1 19.8672 2.08152 2.21314 5.11313 7.2498
67 1 Mg 0.0413163 4.38273 215.701 1.2 1 0 19.636 2.00164 2.14574 5.21342 6.96351
68 2 Si 2.72545 5.99407 214.756 2.4 1 1 19.8644 1.95438 2.10482 4.95933 7.25911
69 3 O 1.11222 6.01253 214.745 -1.2 1 1 19.9457 2.10682 2.08109 5.10112 6.91951
70 3 O 3.43163 4.72942 213.992 -1.2 1 1 19.8802 2.12066 1.97623 4.83081 7.03418
71 3 O 3.43163 6.0456 216.231 -1.2 1 1 19.868 1.87263 2.08069 4.99848 6.95196
72 3 O 3.42403 7.28631 213.997 -1.2 1 1 20.1333 1.93728 2.13851 5.02949 7.08664
73 1 Mg 4.70768 1.98298 220.578 1.2 1 1 20.1855 1.95119 2.10118 4.99469 7.06108
74 2 Si 2.02355 0.371636 221.523 2.4 1 1 19.9871 1.91988 2.01901 4.86603 7.03788
75 3 O 3.63678 0.353175 221.534 -1.2 1 1 19.7815 2.14161 2.04623 5.28861 6.94203
76 3 O 1.31737 0.320104 220.047 -1.2 1 0 20.166 2.40421 2.10203 4.89915 6.97434
77 3 O 1.31737 1.63629 222.287 -1.2 1 0 19.657 2.06485 2.20996 4.99448 6.93864
78 3 O 1.32497 -0.920602 222.281 -1.2 1 0 20.0842 2.05644 2.26817 4.92089 7.38681
79 1 Mg 2.3745 3.18285 218.139 1.2 1 0 20.1538 1.79429 1.69628 5.19655 7.03849
80 1 Mg 2.41582 6.37835 217.999 1.2 1 1 20.0967 2.13555 2.06958 4.92543 7.2957
81 2 Si 0.350951 4.767 218.944 2.4 1 0 19.6994 2.14238 2.00165 5.17822 6.71976
82 3 O -1.26228 4.74854 218.955 -1.2 1 0 20.1312 1.94617 1.92442 5.12942 6.65615
83 3 O 1.05713 4.71547 217.468 -1.2 1 1 20.092 2.13499 1.93115 5.10174 7.04316
84 3 O 1.05713 6.03166 219.708 -1.2 1 1 19.7444 2.0577 2.12742 5.02053 7.03561
85 3 O 1.04953 3.47477 219.702 -1.2 1 0 20.1726 2.34705 2.03677 5.33104 6.82699
86 1 Mg 2.3745 1.66721 215.56 1.2 1 1 19.914 1.89996 1.96577 5.25555 7.19329
87 2 Si 4.39805 1.5987 217.335 2.4 1 0 20.0207 2.35903 1.96682 4.90584 7.43422
88 3 O 6.01128 1.61716 217.324 -1.2 1 0 19.696 2.14323 2.26424 4.96041 7.06323
89 3 O 3.69187 0.334048 216.571 -1.2 1 1 20.1262 1.8196 2.07103 5.10767 6.97557
90 3 O 3.69187 1.65023 218.81 -1.2 1 0 19.9309 1.90658 1.79166 4.86015 6.54081
91 3 O 3.69947 2.89094 216.576 -1.2 1 1 20.0867 2.27165 2.11809 5.17878 7.1073
92 1 Mg 0.0413163 7.41402 220.859 1.2 1 0 20.0466 2.27978 1.81704 5.08833 7.1132
93 2 Si 2.72545 9.02536 219.914 2.4 1 1 20.1862 2.17189 1.66235 5.09668 7.26735
94 3 O 1.11222 9.04382 219.903 -1.2 -1 0 19.6492 1.76384 1.82084 5.3231 6.80187
95 3 O 3.43163 7.7607 219.15 -1.2 1 0 20.1409 2.02513 1.95469 4.49007 6.89472
96 3 O 3.43163 9.07689 221.389 -1.2 1 1 20.0696 1.90671 2.20903 5.12545 6.78829
97 3 O 3.42403 10.3176 219.155 -1.2 1 1 19.858 2.15312 1.883 5.18853 6.97151
98 1 Mg 4.70768 5.01427 225.736 1.2 1 1 19.8422 1.85978 2.07471 4.91354 7.1287
99 2 Si 2.02355 3.40292 226.681 2.4 1 0 19.9783 1.69805 2.35036 5.1182 6.71971
100 3 O 3.63678 3.38446 226.692 -1.2 1 1 19.8994 2.29002 1.89871 5.07893 7.004
101 3 O 1.31737 3.35139 225.205 -1.2 1 1 20.1263 1.95452 1.84033 4.83839 6.86804
102 3 O 1.31737 4.66758 227.445 -1.2 -1 0 20.2216 2.12055 1.68482 5.1453 6.78721
103 3 O 1.32497 2.11069 227.439 -1.2 1 1 20.1796 2.2435 2.02984 5.1899 7.26392
104 1 Mg 2.3745 6.21414 223.297 1.2 1 1 20.094 2.09767 2.10446 4.87058 6.86621
105 1 Mg 2.41582 9.40963 223.157 1.2 1 1 20.0823 2.03493 1.93237 4.698 7.2582
106 2 Si 0.350951 7.79829 224.102 2.4 1 1 20.0526 1.97402 1.8649 5.02077 6.90387
107 3 O -1.26228 7.77983 224.113 -1.2 1 1 20.0585 2.15918 2.28482 5.18324 7.00571
108 3 O 1.05713 7.74676 222.626 -1.2 1 1 20.1439 2.1426 2.1256 4.90405 7.08988
109 3 O 1.05713 9.06294 224.866 -1.2 -1 0 19.9115 2.06415 1.7188 5.43296 7.0726
110 3 O 1.04953 6.50605 224.86 -1.2 1 1 20.1374 2.14236 2.00309 5.06669 7.15508
111 1 Mg 2.3745 4.6985 220.718 1.2 1 1 19.9067 2.27338 1.95739 4.8767 6.94127
112 1 Mg 2.33318 3.01865 223.438 1.2 1 1 19.9238 2.18498 2.04721 4.99141 6.84494
113 2 Si 4.39805 4.62999 222.493 2.4 1 1 20.0292 2.05992 2.20474 4.96027 7.08864
114 3 O 6.01128 4.64845 222.482 -1.2 1 1 19.7988 1.93087 1.96678 4.85732 7.00805
115 3 O 3.69187 3.36534 221.729 -1.2 1 1 20.0833 1.79815 2.35845 5.005 6.97523
116 3 O 3.69187 4.68152 223.968 -1.2 1 1 19.9939 1.79388 2.22707 5.12604 6.9926
117 3 O 3.69947 5.92223 221.735 -1.2 1 0 19.9033 1.74494 1.77044 4.62514 6.85309
118 1 Mg 0.0413163 10.4453 226.017 1.2 1 1 20.0045 1.94609 1.96411 4.96448 7.06398
119 1 Mg 4.70768 8.04555 230.894 1.2 1 1 20.0921 2.01653 1.90429 4.94484 6.84536
120 2 Si 2.02355 6.43421 231.839 2.4 1 1 19.9369 1.82972 2.00914 4.79584 6.84685
121 3 O 3.63678 6.41575 231.85 -1.2 1 1 19.9981 1.79773 1.82093 5.05475 7.11245
122 3 O 1.31737 6.38268 230.363 -1.2 1 1 20.0734 1.98396 2.04965 4.98153 6.97865
123 3 O 1.31737 7.69887 232.603 -1.2 1 1 19.9166 2.25966 2.12814 5.1588 6.81206
124 3 O 1.32497 5.14197 232.597 -1.2 1 1 20.161 2.04806 2.29321 5.05361 7.18332
125 1 Mg 2.3745 9.24543 228.455 1.2 1 1 20.097 2.12383 2.31046 5.10238 6.92387
126 2 Si 0.350951 10.8296 229.26 2.4 1 1 19.9118 2.12976 1.89732 5.10874 7.1683
127 3 O -1.26228 10.8111 229.271 -1.2 1 0 20.2026 1.67831 1.74468 4.99625 7.23182
128 3 O 1.05713 10.778 227.784 -1.2 -1 0 20.211 2.36484 1.7054 5.35261 7.17748
129 3 O 1.05713 12.0942 230.024 -1.2 1 1 19.9813 2.20555 2.18671 4.92084 6.80804
130 3 O 1.04953 9.53734 230.018 -1.2 1 1 19.8559 1.88677 1.86467 4.96104 7.03583
131 1 Mg 2.3745 7.72978 225.876 1.2 1 1 19.9433 2.03597 1.79407 5.05392 7.15647
132 1 Mg 2.33318 6.04994 228.596 1.2 1 0 19.9613 2.34035 1.61217 4.99093 6.88089
133 2 Si 4.39805 7.66128 227.651 2.4 1 1 19.8485 1.88674 1.97081 4.69022 6.8352
134 3 O 6.01128 7.67974 227.64 -1.2 1 1 19.849 2.06078 2.08649 5.17305 7.18761
135 3 O 3.69187 6.39662 226.887 -1.2 1 1 20.1034 2.08366 1.93766 4.84019 7.06914
136 3 O 3.69187 7.71281 229.127 -1.2 1 1 19.8304 1.94662 2.12487 5.10799 6.67952
137 3 O 3.69947 8.95352 226.893 -1.2 1 1 19.9395 2.23021 2.13383 5.37895 7.14951
138 1 Mg 4.70768 11.0768 236.052 1.2 1 1 19.8131 1.8635 1.98196 5.11344 6.94554
139 2 Si 2.02355 9.4655 236.997 2.4 1 1 20.0048 2.34228 2.05142 4.77617 7.00733
140 3 O 3.63678 9.44704 237.008 -1.2 1 1 20.1555 1.98402 2.12907 4.6999 6.87881
141 3 O 1.31737 9.41397 235.522 -1.2 1 1 19.9798 2.0016 2.38871 5.13176 7.3039
142 3 O 1.31737 10.7302 237.761 -1.2 1 1 19.7183 2.03255 1.87326 4.90346 6.86087
143 3 O 1.32497 8.17326 237.755 -1.2 1 1 20.0934 1.81389 2.19897 5.00606 6.83945
144 1 Mg 2.3745 10.7611 231.035 1.2 1 1 19.8888 1.91406 2.05827 5.20855 6.97089
145 1 Mg 2.33318 9.08122 233.754 1.2 1 1 19.9989 1.97353 1.81866 4.95739 6.94404
146 2 Si 4.39805 10.6926 232.809 2.4 1 1 20.1704 2.19835 2.10082 5.35681 6.97031
147 3 O 6.01128 10.711 232.798 -1.2 1 1 19.9228 2.05567 2.02913 4.98076 7.29504
148 3 O 3.69187 9.42791 232.045 -1.2 1 0 19.9067 1.68693 1.99099 4.88502 6.81806
149 3 O 3.69187 10.7441 234.285 -1.2 1 1 20.07 1.99788 2.17483 5.29571 7.09068
150 3 O 3.69947 11.9848 232.051 -1.2 1 0 20.2115 2.37271 2.09859 5.40089 7.05407
151 2 Si 2.72545 0.234622 225.072 2.4 1 1 19.9954 1.94427 1.90321 4.79948 7.06707
152 3 O 1.11222 0.253082 225.061 -1.2 1 1 19.9157 1.85279 1.95888 4.92609 7.14679
153 3 O 3.43163 -1.03003 224.308 -1.2 -1 0 19.9367 2.55151 1.8509 5.15472 7.41051
154 3 O 3.43163 0.286154 226.548 -1.2 1 1 19.7529 1.96124 1.79452 4.98984 7.02128
155 3 O 3.42403 1.52686 224.314 -1.2 1 1 20.1723 1.88657 2.24129 5.28014 6.97817
156 1 Mg 2.41582 0.618898 228.315 1.2 1 0 19.6184 1.99574 2.43662 4.73033 7.13862
157 1 Mg 0.0413163 1.65457 231.175 1.2 1 1 20.1127 1.80062 2.22013 5.07893 6.94828
158 2 Si 2.72545 3.26591 230.23 2.4 1 1 19.9642 1.98738 2.21671 5.16711 6.90796
159 3 O 1.11222 3.28437 230.219 -1.2 1 1 20.0446 2.05687 2.14445 5.23644 7.32442
160 3 O 3.43163 2.00126 229.466 -1.2 1 1 19.8742 1.8223 2.09835 5.20778 7.07516
161 3 O 3.43163 3.31744 231.706 -1.2 1 0 20.1598 2.16023 2.12485 5.23619 6.59021
162 3 O 3.42403 4.55815 229.472 -1.2 1 1 20.0506 1.87566 1.92326 4.74496 6.96836
163 1 Mg 2.3745 0.454693 233.614 1.2 1 1 19.9459 1.82206 2.1501 4.85361 6.90819
164 1 Mg 2.41582 3.65019 233.473 1.2 1 1 20.085 1.894 2.24321 4.85067 6.77978
165 2 Si 0.350951 2.03884 234.418 2.4 1 1 19.9725 2.27031 2.29639 4.9877 7.29039
166 3 O -1.26228 2.02038 234.429 -1.2 1 0 20.0158 1.81456 1.94948 4.83861 7.3397
167 3 O 1.05713 1.98731 232.942 -1.2 1 1 19.8066 2.29418 1.91558 5.08771 6.98456
168 3 O 1.05713 3.3035 235.182 -1.2 1 1 20.0659 1.90803 2.28194 5.27002 7.25641
169 3 O 1.04953 0.746606 235.176 -1.2 1 1 19.6698 2.00848 1.83307 4.88709 6.95198
170 1 Mg 0.0413163 4.68586 236.333 1.2 1 1 19.8418 1.91465 2.09707 4.73852 6.94025
171 2 Si 2.72545 6.2972 235.388 2.4 1 1 20.315 2.19792 2.00147 5.10433 7.04328
172 3 O 1.11222 6.31566 235.377 -1.2 1 1 20.0674 1.87503 2.01438 5.0402 7.01425
173 3 O 3.43163 5.03254 234.624 -1.2 1 0 20.1617 2.51929 2.20593 4.89238 6.96219
174 3 O 3.43163 6.34873 236.864 -1.2 1 1 20.1572 2.03415 1.92752 5.18081 7.00978
175 3 O 3.42403 7.58944 234.63 -1.2 1 1 20.0993 2.07125 2.01896 5.20839 7.16991
176 1 Mg 4.70768 2.28611 241.21 1.2 1 0 20.0417 2.33389 1.85242 5.10256 7.22212
177 2 Si 2.02355 0.674765 242.155 2.4 1 0 19.7097 2.09284 1.57592 4.94038 7.11442
178 3 O 3.63678 0.656304 242.166 -1.2 -1 0 19.7528 2.19544 1.63489 4.77281 6.78734
179 3 O 1.31737 0.623233 240.68 -1.2 1 1 19.9177 2.03317 1.86766 4.98575 6.56633
180 3 O 1.31737 1.93942 242.919 -1.2 1 1 20.1292 1.94011 2.21333 4.9051 7.01074
181 3 O 1.32497 -0.617473 242.914 -1.2 1 1 19.8713 1.882 1.71682 5.13369 7.20583
182 1 Mg 2.3745 3.48598 238.772 1.2 1 0 20.0058 1.9646 1.73913 4.95525 6.62462
183 1 Mg 2.41582 6.68147 238.631 1.2 1 1 20.0893 1.84693 1.89928 4.7407 7.03019
184 2 Si 0.350951 5.07013 239.576 2.4 1 1 20.1918 1.82665 2.1671 5.05785 7.25005
185 3 O -1.26228 5.05167 239.587 -1.2 1 0 19.9521 2.11894 1.89851 5.18552 6.62574
186 3 O 1.05713 5.0186 238.101 -1.2 1 1 20.1958 1.82921 1.88897 5.15855 7.05552
187 3 O 1.05713 6.33479 240.34 -1.2 1 1 20.2377 2.1811 2.14639 5.16483 7.10572
188 3 O 1.04953 3.77789 240.335 -1.2 1 1 20.0115 1.97507 2.17666 5.0933 6.97605
189 1 Mg 2.3745 1.97034 236.193 1.2 1 1 20.0213 2.05879 2.12009 4.79145 6.87596
190 1 Mg 2.33318 0.290488 238.912 1.2 1 1 20.0423 1.92839 2.09683 5.00218 7.04789
191 2 Si 4.39805 1.90183 237.967 2.4 1 1 19.8158 2.1329 1.88411 5.02106 6.86383
192 3 O 6.01128 1.92029 237.956 -1.2 1 0 20.2648 2.38734 1.8911 4.80311 7.25444
193 3 O 3.69187 0.637177 237.203 -1.2 1 1 20.0521 2.19505 2.04304 4.88785 6.80612
194 3 O 3.69187 1.95336 239.443 -1.2 1 1 20.0993 1.94218 1.99622 5.15379 6.88205
195 3 O 3.69947 3.19407 237.209 -1.2 1 1 20.1158 1.82193 1.88476 4.92914 6.69993
196 1 Mg 0.0413163 7.71714 241.491 1.2 1 1 20.0814 1.93194 2.00442 5.17507 7.2114
197 2 Si 2.72545 9.32849 240.546 2.4 1 1 19.8781 1.94608 1.91707 5.04356 7.27403
198 3 O 1.11222 9.34695 240.535 -1.2 1 1 20.0554 1.92841 2.37695 4.88311 6.94695
199 3 O 3.43163 8.06383 239.782 -1.2 1 1 19.9974 1.89103 1.93983 4.93139 7.02322
200 3 O 3.43163 9.38002 242.022 -1.2 1 0 20.0107 1.75974 1.7929 5.04853 7.38654
201 3 O 3.42403 10.6207 239.788 -1.2 1 1 20.0678 1.73441 1.8013 5.03885 6.8178
202 1 Mg 4.70768 5.31739 246.368 1.2 1 1 20.0629 1.86087 1.80535 4.98936 6.80032
203 2 Si 2.02355 3.70605 247.313 2.4 1 1 19.9252 2.02269 1.99148 4.79411 6.91358
204 3 O 3.63678 3.68759 247.324 -1.2 1 1 19.9231 2.03528 2.0214 5.13821 7.21301
205 3 O 1.31737 3.65452 245.838 -1.2 1 1 20.0174 1.73208 1.96287 5.22503 6.95294
206 3 O 1.31737 4.97071 248.077 -1.2 1 0 19.9626 1.68855 1.82263 4.61435 7.2187
207 3 O 1.32497 2.41381 248.072 -1.2 1 1 20.287 1.80348 2.25703 5.12937 7.06126
208 1 Mg 2.3745 6.51727 243.93 1.2 1 0 19.7264 2.10217 1.97291 4.7604 6.78366
209 1 Mg 2.41582 9.71276 243.789 1.2 1 0 19.9675 2.34635 2.1586 4.87334 7.08952
210 2 Si 0.350951 8.10142 244.734 2.4 1 1 20.1797 2.26844 2.14563 4.89493 7.10421
211 3 O -1.26228 8.08296 244.745 -1.2 1 1 20.0471 2.07098 2.05049 4.94501 7.24171
212 3 O 1.05713 8.04989 243.259 -1.2 1 1 19.7867 2.04338 1.72255 4.7643 7.05264
213 3 O 1.05713 9.36607 245.498 -1.2 1 1 19.8858 2.26884 2.0263 5.29695 7.02982
214 3 O 1.04953 6.80918 245.493 -1.2 1 1 20.0014 2.03082 2.0168 5.21646 6.95722
215 1 Mg 2.3745 5.00163 241.351 1.2 1 0 20.2659 2.29074 2.03613 5.081 6.9568
216 1 Mg 2.33318 3.32178 244.071 1.2 1 1 19.9394 1.94517 2.1256 4.69495 6.99261
217 2 Si 4.39805 4.93312 243.125 2.4 1 1 20.0215 1.98986 1.85305 4.77733 7.07301
218 3 O 6.01128 4.95158 243.114 -1.2 1 0 20.303 2.29916 1.70693 4.98928 7.1327
219 3 O 3.69187 3.66846 242.361 -1.2 1 1 20.1605 2.16652 1.77876 4.99256 7.07302
220 3 O 3.69187 4.98465 244.601 -1.2 1 0 19.9256 1.85299 2.38321 4.82804 6.95239
221 3 O 3.69947 6.22536 242.367 -1.2 1 1 20.0435 1.94606 2.05254 5.00554 7.05367
222 1 Mg 0.0413163 10.7484 246.65 1.2 1 1 20.1853 2.17889 2.06241 4.94816 6.95295
223 1 Mg 4.70768 8.34868 251.526 1.2 1 0 19.705 1.80715 2.01942 4.63758 7.06342
224 2 Si 2.02355 6.73734 252.471 2.4 1 1 20.2627 2.11369 1.8119 5.02114 7.08972
225 3 O 3.63678 6.71888 252.482 -1.2 1 0 20.3717 2.14602 1.98537 4.91226 6.98901
226 3 O 1.31737 6.68581 250.996 -1.2 1 1 19.8482 2.07327 2.02991 4.68095 7.07437
227 3 O 1.31737 8.00199 253.235 -1.2 1 1 19.9531 2.05731 2.09608 5.21591 7.06465
228 3 O 1.32497 5.4451 253.23 -1.2 1 1 19.8516 1.80351 1.77285 5.12406 6.95243
229 1 Mg 2.3745 9.54856 249.088 1.2 1 1 20.0857 2.10212 2.17003 4.94352 6.86934
230 2 Si 0.350951 11.1327 249.892 2.4 1 1 20.0658 2.20926 1.83211 5.20497 6.91344
231 3 O -1.26228 11.1142 249.903 -1.2 1 1 20.1562 1.85243 2.18127 5.2946 6.96426
232 3 O 1.05713 11.0812 248.417 -1.2 1 1 19.7895 2.02557 1.86058 5.10238 6.94777
233 3 O 1.05713 12.3974 250.656 -1.2 1 1 20.0179 1.89327 1.81484 5.0803 7.03838
234 3 O 1.04953 9.84047 250.651 -1.2 1 0 19.9144 1.73685 2.3017 5.30618 7.01606
235 1 Mg 2.3745 8.03291 246.509 1.2 1 1 20.1093 1.79707 2.17765 5.10793 6.82239
236 1 Mg 2.33318 6.35306 249.229 1.2 1 0 19.9981 1.71131 1.79741 4.78467 7.21588
237 2 Si 4.39805 7.96441 248.283 2.4 1 1 20.1104 1.96495 1.87803 5.20499 6.90722
238 3 O 6.01128 7.98287 248.272 -1.2 1 1 20.0839 2.24825 2.09942 5.07692 6.74911
239 3 O 3.69187 6.69975 247.519 -1.2 1 0 20.1031 1.58516 1.87089 5.16107 6.88352
240 3 O 3.69187 8.01594 249.759 -1.2 1 1 19.8755 1.9086 1.72019 4.66332 7.08792
241 3 O 3.69947 9.25664 247.525 -1.2 1 1 20.0428 1.94839 1.81665 4.96262 7.26875
242 1 Mg 4.70768 11.38 256.684 1.2 1 1 20.2873 1.86314 2.10498 5.0836 6.98847
243 2 Si 2.02355 9.76863 257.63 2.4 1 1 19.9978 2.14419 1.61216 4.85658 6.95164
244 3 O 3.63678 9.75017 257.64 -1.2 1 1 20.1646 1.9812 1.95734 5.0476 6.89623
245 3 O 1.31737 9.7171 256.154 -1.2 1 1 19.8171 1.8811 1.89265 4.90847 7.20567
246 3 O 1.31737 11.0333 258.393 -1.2 1 1 20.2574 2.10293 1.98792 4.68328 7.02233
247 3 O 1.32497 8.47639 258.388 -1.2 1 1 19.9533 2.04841 1.97089 4.87333 7.07917
248 1 Mg 2.3745 11.0642 251.667 1.2 1 1 20.1518 2.10713 2.0022 5.00777 6.65216
249 1 Mg 2.33318 9.38435 254.387 1.2 1 0 19.8776 1.63633 1.92827 5.01395 7.169
250 2 Si 4.39805 10.9957 253.441 2.4 -1 0 20.188 2.48128 2.35249 5.3977 7.2062
251 3 O 6.01128 11.0142 253.43 -1.2 1 1 19.8742 2.11865 2.07021 4.99387 6.81949
252 3 O 3.69187 9.73104 252.677 -1.2 1 1 19.8598 1.98268 2.1078 4.62653 6.83393
253 3 O 3.69187 11.0472 254.917 -1.2 1 1 20.0687 2.03378 2.19105 4.9916 7.05472
254 3 O 3.69947 12.2879 252.683 -1.2 1 1 20.1242 1.70957 1.82048 5.06716 6.89852
255 2 Si 2.72545 0.53775 245.704 2.4 1 1 20.0991 1.90084 2.14293 5.03184 6.97856
256 3 O 1.11222 0.556211 245.693 -1.2 1 1 19.9828 1.78543 1.86463 5.0984 7.25065
257 3 O 3.43163 -0.726903 244.94 -1.2 1 1 20.2103 1.7712 2.08708 4.98303 6.97261
258 3 O 3.43163 0.589282 247.18 -1.2 1 1 20.0239 1.85959 2.17859 5.17058 6.87883
259 3 O 3.42403 1.82999 244.946 -1.2 1 1 19.7583 2.10158 2.04958 4.86847 7.16622
260 1 Mg 2.41582 0.922027 248.947 1.2 1 0 20.0146 1.99716 2.02325 5.03744 7.4755
261 1 Mg 0.0413163 1.9577 251.808 1.2 1 1 20.2387 2.03036 2.09752 5.03412 6.91227
262 2 Si 2.72545 3.56904 250.862 2.4 1 1 20.2092 2.25621 2.23388 5.00024 7.14028
263 3 O 1.11222 3.5875 250.851 -1.2 1 0 19.8971 2.1268 2.02462 5.07522 6.40336
264 3 O 3.43163 2.30439 250.098 -1.2 1 0 19.9982 2.32186 2.30389 4.95422 7.0519
265 3 O 3.43163 3.62057 252.338 -1.2 1 1 20.0725 1.82143 2.1421 4.67547 7.04286
266 3 O 3.42403 4.86128 250.104 -1.2 1 0 20.0395 1.82995 2.04785 5.40645 6.8259
267 1 Mg 2.3745 0.757822 254.246 1.2 1 1 20.1641 2.06054 2.10776 4.98135 6.83575
268 1 Mg 2.41582 3.95331 254.105 1.2 1 1 20.0667 1.96622 2.09959 4.95184 6.79486
269 2 Si 0.350951 2.34197 255.051 2.4 1 1 20.1832 1.79526 2.25921 5.29452 7.04589
270 3 O -1.26228 2.32351 255.061 -1.2 1 0 20.0381 2.15396 1.86005 5.2727 6.78858
271 3 O 1.05713 2.29044 253.575 -1.2 -1 0 20.0948 2.35403 1.64649 4.77869 7.09339
272 3 O 1.05713 3.60663 255.814 -1.2 1 1 19.9009 2.17956 1.94679 4.72466 6.97929
273 3 O 1.04953 1.04974 255.809 -1.2 1 1 19.9961 2.00902 2.13948 4.67669 7.07529
274 1 Mg 0.0413163 4.98898 256.966 1.2 1 0 20.2243 2.02854 2.12626 5.22095 6.62375
275 2 Si 2.72545 6.60033 256.02 2.4 1 1 20.0153 2.25164 2.23062 5.04613 7.27543
276 3 O 1.11222 6.61879 256.009 -1.2 1 1 19.9516 1.93004 2.15376 5.14338 6.95876
277 3 O 3.43163 5.33567 255.256 -1.2 -1 0 19.7966 2.46014 2.00758 4.98298 6.73541
278 3 O 3.43163 6.65186 257.496 -1.2 1 1 20.1277 2.01835 2.32802 5.01213 7.08613
279 3 O 3.42403 7.89256 255.262 -1.2 1 0 20.3596 1.66488 2.04572 4.97865 7.04696
280 1 Mg 4.70768 2.58924 261.842 1.2 -1 0 19.8785 2.39464 2.08947 5.02043 7.44106
281 2 Si 2.02355 0.977894 262.788 2.4 1 1 20.186 2.05798 2.29244 5.09045 6.86156
282 3 O 3.63678 0.959433 262.798 -1.2 1 1 19.9484 1.88556 1.89401 4.80882 7.22885
283 3 O 1.31737 0.926362 261.312 -1.2 1 1 20.0568 1.94758 1.9058 5.14487 6.96986
284 3 O 1.31737 2.24255 263.552 -1.2 1 1 20.031 2.06827 1.96999 4.97266 7.00367
285 3 O 1.32497 -0.314345 263.546 -1.2 1 0 19.8292 1.90067 2.20538 4.79335 6.71096
286 1 Mg 2.3745 3.78911 259.404 1.2 1 0 20.1084 2.03674 1.80214 5.01119 7.41017
287 1 Mg 2.41582 6.9846 259.263 1.2 1 1 19.9761 1.89025 2.11976 5.18321 6.9325
288 2 Si 0.350951 5.37326 260.209 2.4 1 1 20.1783 1.86127 2.09952 5.17177 6.86147
289 3 O -1.26228 5.3548 260.219 -1.2 1 1 20.061 1.96386 2.02857 4.76605 6.89893
290 3 O 1.05713 5.32173 258.733 -1.2 1 1 20.0212 1.78175 1.89555 5.07242 7.1053
291 3 O 1.05713 6.63791 260.973 -1.2 1 1 19.8672 1.82577 1.93446 4.91473 6.82649
292 3 O 1.04953 4.08102 260.967 -1.2 1 1 19.9498 2.00683 2.07216 4.99139 6.79415
293 1 Mg 2.3745 2.27347 256.825 1.2 1 0 20.0398 1.88939 1.98077 5.45589 7.14628
294 1 Mg 2.33318 0.593617 259.545 1.2 1 1 20.0476 2.04025 1.8748 5.00093 6.73372
295 2 Si 4.39805 2.20496 258.599 2.4 1 1 19.8689 1.75656 1.9366 4.88132 7.08898
296 3 O 6.01128 2.22342 258.588 -1.2 1 1 20.1401 1.89725 1.90694 4.84527 7.08341
297 3 O 3.69187 0.940306 257.835 -1.2 1 0 19.8662 2.18457 1.84834 4.70986 7.24627
298 3 O 3.69187 2.25649 260.075 -1.2 1 1 20.2229 2.02024 1.9534 5.346 7.02928
299 3 O 3.69947 3.4972 257.841 -1.2 1 1 19.8555 1.85144 1.77237 4.62547 6.95464
300 1 Mg 0.0413163 8.02027 262.124 1.2 1 1 19.9879 1.75397 1.95025 5.01391 7.21192
301 2 Si 2.72545 9.63161 261.178 2.4 1 1 20.0101 1.86753 2.0038 5.09676 7.27154
302 3 O 1.11222 9.65008 261.167 -1.2 1 1 20.1988 1.80999 2.24646 5.12039 7.00862
303 3 O 3.43163 8.36696 260.414 -1.2 1 1 19.9797 1.77305 2.16757 4.97966 6.63586
304 3 O 3.43163 9.68315 262.654 -1.2 1 1 19.7714 1.84977 1.89598 5.0426 6.85623
305 3 O 3.42403 10.9239 260.42 -1.2 1 1 20.0582 1.99166 2.3829 5.19101 6.86531
306 1 Mg 4.70768 5.62052 267 1.2 1 1 19.7973 1.96583 1.99544 4.80852 7.0529
307 2 Si 2.02355 4.00918 267.946 2.4 1 1 20.0109 2.13333 1.74384 4.84878 7.06846
308 3 O 3.63678 3.99072 267.957 -1.2 1 1 19.9194 1.93854 2.03421 5.00326 6.93375
309 3 O 1.31737 3.95765 266.47 -1.2 1 1 20.0758 1.82206 2.07541 4.74974 6.9527
310 3 O 1.31737 5.27383 268.71 -1.2 1 1 19.9474 2.16711 2.24458 4.89508 7.04403
311 3 O 1.32497 2.71694 268.704 -1.2 1 1 19.8844 2.26129 1.9168 5.17226 7.12103
312 1 Mg 2.3745 6.8204 264.562 1.2 -1 0 19.978 1.85571 1.59257 4.54981 6.83735
313 1 Mg 2.41582 10.0159 264.421 1.2 1 1 19.7112 1.97837 2.14414 5.20116 7.10128
314 2 Si 0.350951 8.40455 265.367 2.4 -1 0 20.0442 1.66426 1.50994 4.98299 7.42373
315 3 O -1.26228 8.38609 265.378 -1.2 1 1 20.1833 1.86472 1.72954 4.8645 6.9777
316 3 O 1.05713 8.35302 263.891 -1.2 1 1 20.2848 2.17142 2.14041 5.32757 7.12821
317 3 O 1.05713 9.6692 266.131 -1.2 1 1 20.042 1.92318 1.98038 5.04714 6.91638
318 3 O 1.04953 7.11231 266.125 -1.2 1 1 19.9028 1.96157 2.04357 5.05435 6.78052
319 1 Mg 2.3745 5.30475 261.983 1.2 1 1 20.0765 2.17236 1.98152 5.24488 7.23128
320 1 Mg 2.33318 3.62491 264.703 1.2 1 1 20.0031 1.977 1.87803 5.02725 7.05079
321 2 Si 4.39805 5.23625 263.757 2.4 1 1 19.9386 2.05886 2.05663 4.90167 7.03272
322 3 O 6.01128 5.25471 263.747 -1.2 1 1 20.0155 1.82007 1.98162 4.85275 6.95422
323 3 O 3.69187 3.97159 262.993 -1.2 1 0 20.1312 2.17847 1.64201 5.15942 6.84838
324 3 O 3.69187 5.28778 265.233 -1.2 1 0 19.6799 2.22398 1.74154 4.96626 6.87949
325 3 O 3.69947 6.52849 262.999 -1.2 1 0 19.9844 2.17548 2.28376 5.00039 7.33404
326 1 Mg 0.0413163 11.0516 267.282 1.2 1 1 20.4017 1.99041 2.16737 5.0394 6.92384
327 1 Mg 4.70768 8.65181 272.158 1.2 1 1 20.0155 1.98385 2.24807 5.03357 6.91957
328 2 Si 2.02355 7.04047 273.104 2.4 1 1 19.9442 2.05478 2.20925 5.07203 7.08683
329 3 O 3.63678 7.02201 273.115 -1.2 1 1 20.1981 2.01859 2.10746 5.21255 7.21088
330 3 O 1.31737 6.98894 271.628 -1.2 1 1 19.7994 1.78621 1.84856 5.13561 7.06334
331 3 O 1.31737 8.30512 273.868 -1.2 -1 0 19.6901 1.80885 2.24444 5.04533 7.1953
332 3 O 1.32497 5.74823 273.862 -1.2 1 1 20.1247 1.87826 2.31961 4.82443 6.84272
333 1 Mg 2.3745 9.85169 269.72 1.2 1 1 19.9498 1.90798 1.89277 5.10172 6.88532
334 2 Si 0.350951 11.4358 270.525 2.4 1 1 20.0622 2.07846 2.04641 4.7545 6.95501
335 3 O -1.26228 11.4174 270.536 -1.2 1 1 19.8397 1.96552 1.90829 5.24939 7.16799
336 3 O 1.05713 11.3843 269.049 -1.2 1 1 19.8713 2.03559 2.20405 5.031 7.33103
337 3 O 1.05713 12.7005 271.289 -1.2 1 1 19.979 2.12175 2.14945 5.16672 6.988
338 3 O 1.04953 10.1436 271.283 -1.2 1 1 20.1302 1.89355 2.17246 5.11606 6.88872
339 1 Mg 2.3745 8.33604 267.141 1.2 1 0 20.2344 1.93741 2.00683 5.03836 7.4756
340 1 Mg 2.33318 6.65619 269.861 1.2 1 1 20.1119 1.92365 2.31404 4.84503 7.01015
341 2 Si 4.39805 8.26753 268.915 2.4 1 1 20.2599 1.97336 1.9398 5.2294 7.01975
342 3 O 6.01128 8.286 268.905 -1.2 1 0 20.3137 2.15704 2.32274 5.00369 7.06113
343 3 O 3.69187 7.00288 268.152 -1.2 1 1 19.7911 1.84636 1.94124 5.18495 7.06103
344 3 O 3.69187 8.31907 270.391 -1.2 1 0 20.1958 1.96248 1.86677 5.2827 7.25378
345 3 O 3.69947 9.55977 268.157 -1.2 1 1 20.017 1.81807 1.9036 4.62877 7.11151
346 1 Mg 4.70768 11.6831 277.316 1.2 1 0 19.9106 1.63168 1.92358 5.12087 7.14419
347 2 Si 2.02355 10.0718 278.262 2.4 1 1 20.1042 1.7443 2.11673 5.11461 7.15212
348 3 O 3.63678 10.0533 278.273 -1.2 1 1 19.975 1.94485 1.65678 4.99185 7.03661
349 3 O 1.31737 10.0202 276.786 -1.2 1 1 20.1091 2.10565 1.94222 5.01836 6.9624
350 3 O 1.31737 11.3364 279.026 -1.2 1 1 19.7231 1.96615 1.97584 4.80323 6.94541
351 3 O 1.32497 8.77952 279.02 -1.2 1 1 19.7792 2.02636 1.82988 5.02892 6.67675
352 1 Mg 2.3745 11.3673 272.299 1.2 1 1 20.0031 2.06056 1.87645 4.781 7.2073
353 1 Mg 2.33318 9.68748 275.019 1.2 1 1 19.8518 1.90423 1.95497 4.86516 7.13466
354 2 Si 4.39805 11.2988 274.074 2.4 1 1 19.9368 2.16194 2.21162 4.97948 7.12272
355 3 O 6.01128 11.3173 274.063 -1.2 1 1 19.8653 1.93023 1.9848 4.83629 7.0011
356 3 O 3.69187 10.0342 273.31 -1.2 1 1 19.7867 1.92322 1.98166 5.1234 6.96746
357 3 O 3.69187 11.3504 275.549 -1.2 1 1 19.9569 1.87903 2.01166 5.18335 7.01859
358 3 O 3.69947 12.5911 273.315 -1.2 1 0 19.8471 2.18504 1.57443 5.11775 6.83891
359 2 Si 2.72545 0.840879 266.336 2.4 -1 0 20.0648 1.81312 1.56534 4.7716 6.56941
360 3 O 1.11222 0.85934 266.326 -1.2 1 1 19.892 2.31529 1.96531 5.28237 6.97174
361 3 O 3.43163 -0.423774 265.572 -1.2 1 1 19.8767 1.93378 2.11052 5.01182 7.01003
362 3 O 3.43163 0.892411 267.812 -1.2 1 1 19.9732 2.02015 1.94255 4.81041 6.74324
363 3 O 3.42403 2.13312 265.578 -1.2 1 1 20.2336 1.75452 2.19013 5.30544 6.9673
364 1 Mg 2.41582 1.22516 269.579 1.2 1 1 19.806 1.97549 2.09149 4.76362 7.16785
365 1 Mg 0.0413163 2.26083 272.44 1.2 1 1 19.95 1.74395 2.04065 5.00171 7.27539
366 2 Si 2.72545 3.87217 271.494 2.4 1 1 20.0042 1.91736 2.17852 5.01697 6.64422
367 3 O 1.11222 3.89063 271.484 -1.2 1 1 19.7996 2.14817 1.89122 5.02687 7.12749
368 3 O 3.43163 2.60751 270.731 -1.2 1 1 19.9123 2.19159 2.13855 5.02837 6.95891
369 3 O 3.43163 3.9237 272.97 -1.2 1 1 20.2251 1.79802 2.07781 5.13341 6.98322
370 3 O 3.42403 5.16441 270.736 -1.2 1 1 19.9722 2.1079 2.08788 5.3245 7.24511
371 1 Mg 2.3745 1.06095 274.878 1.2 1 0 19.9247 1.69768 1.71637 5.08745 6.77431