ITEM: TIMESTEP
0
ITEM: NUMBER OF ATOMS
11200
ITEM: BOX BOUNDS pp pp pp
0	4.84728
0	204.08
0	120.022
ITEM: ATOMS id type element xu yu zu q Disorder
1 1 Mg -1.21812 0.498919 0.38855 1.2 0.947144
2 1 Mg 3.47965 3.18334 1.62391 1.2 0.569914
3 2 Si 0.79268 1.30537 1.74741 2.4 0.517246
4 3 O 2.35574 1.28827 1.76593 -1.2 0.918723
5 3 O -0.210643 4.84655 1.46967 -1.2 0.443005
6 3 O 0.319943 1.83666 0.300004 -1.2 0.788657
7 1 Mg -1.6342 0.859002 3.49212 1.2 0.892995
8 3 O -0.0460344 2.12731 2.86379 -1.2 0.942545
9 1 Mg -1.36514 7.59279 4.48887 1.2 0.121421
10 2 Si 1.33997 9.4122 4.49099 2.4 0
11 3 O -0.224315 9.48962 4.49775 -1.2 0
12 3 O 2.27546 5.86051 4.59256 -1.2 0.261795
13 3 O 2.09796 8.71591 3.26453 -1.2 0.10235
14 3 O 1.95347 8.78026 5.82188 -1.2 0.0143845
15 1 Mg 1.02535 5.33731 3.03035 1.2 0.318384
16 1 Mg 0.65461 2.53469 4.76818 1.2 0.599721
17 2 Si 2.94923 4.38518 4.59959 2.4 0.153628
18 3 O -0.337374 4.45934 4.61085 -1.2 0.143917
19 3 O 1.42781 0.567223 4.52858 -1.2 0.946126
20 3 O 2.38696 3.74466 3.25358 -1.2 0.622978
21 1 Mg 1.32883 5.31117 -0.0207334 1.2 0.321852
22 3 O 2.11915 3.65954 5.77265 -1.2 0.506187
23 1 Mg 1.27911 8.12777 1.47481 1.2 0.0437638
24 2 Si -0.903473 6.33615 1.46832 2.4 0.112157
25 3 O 2.38152 6.20597 1.48702 -1.2 0.164176
26 3 O 0.162589 9.87525 1.53183 -1.2 0.0688446
27 3 O -0.115539 6.99903 0.255365 -1.2 0.336241
28 3 O -0.309293 6.94208 2.82436 -1.2 0.244895
29 1 Mg -1.12938 10.3427 -0.0170434 1.2 0.0679842
30 1 Mg 3.53845 13.1806 1.5077 1.2 0
31 2 Si 0.862932 11.3614 1.49747 2.4 0
32 3 O 2.42604 11.2729 1.49941 -1.2 0
33 3 O -0.186642 14.9401 1.4473 -1.2 0
34 3 O 0.230711 11.9662 0.164475 -1.2 0
35 1 Mg -1.31818 10.393 2.99747 1.2 0.0994007
36 3 O 0.110709 12.0517 2.72978 -1.2 0.139382
37 1 Mg -1.2373 17.7257 4.439 1.2 0
38 2 Si 1.45255 19.5518 4.46006 2.4 0
39 3 O -0.111662 19.631 4.45937 -1.2 0.0290144
40 3 O 2.47601 15.9629 4.48934 -1.2 0.0149034
41 3 O 2.18341 18.8695 3.21047 -1.2 0.0346115
42 3 O 2.10809 18.9117 5.76803 -1.2 0
43 1 Mg 1.14348 15.4529 2.96631 1.2 0.0243651
44 1 Mg 0.96767 12.6645 4.51535 1.2 0
45 2 Si 3.16355 14.4755 4.48898 2.4 0
46 3 O -0.119392 14.555 4.48555 -1.2 0.0612735
47 3 O 2.05094 10.8881 4.47193 -1.2 0.0389428
48 3 O 2.51355 13.8288 3.18134 -1.2 0.0150244
49 1 Mg 1.27132 15.4289 -0.0402414 1.2 0.0368268
50 3 O 2.41036 13.8086 5.7355 -1.2 0.116655
51 1 Mg 1.2891 18.2502 1.45254 1.2 0.00709398
52 2 Si -0.881574 16.4283 1.44467 2.4 0
53 3 O 2.40198 16.3418 1.45526 -1.2 0.0415354
54 3 O 0.184151 20.0207 1.47984 -1.2 0.0206083
55 3 O -0.140381 17.0891 0.193541 -1.2 0.0257358
56 3 O -0.22531 17.0751 2.75215 -1.2 0
57 1 Mg -1.16026 20.508 -0.0421674 1.2 0.000730761
58 1 Mg 3.5631 23.333 1.479 1.2 0.00189551
59 2 Si 0.88286 21.5066 1.46198 2.4 0.0005292
60 3 O 2.44672 21.4243 1.46459 -1.2 0.0269745
61 3 O -0.172958 25.1041 1.44444 -1.2 0.00133158
62 3 O 0.218921 22.1392 0.154983 -1.2 0
63 1 Mg -1.25501 20.5311 2.96133 1.2 0.0114614
64 3 O 0.154533 22.1862 2.71444 -1.2 0.0277333
65 1 Mg -1.18665 27.8907 4.43622 1.2 0.00427322
66 2 Si 1.49907 29.7179 4.45776 2.4 0
67 3 O -0.0650962 29.7982 4.45532 -1.2 0
68 3 O 2.5437 26.1188 4.46715 -1.2 0
69 3 O 2.21822 29.0422 3.19812 -1.2 0.0151092
70 3 O 2.17187 29.073 5.75512 -1.2 0
71 1 Mg 1.18471 25.612 2.95499 1.2 0.000915994
72 1 Mg 1.0599 22.8114 4.46958 1.2 0.00655926
73 2 Si 3.23656 24.6321 4.46819 2.4 0
74 3 O -0.0464866 24.7127 4.46321 -1.2 0
75 3 O 2.15511 21.0338 4.44703 -1.2 0.0092905
76 3 O 2.56467 23.9769 3.17434 -1.2 0.00708168
77 1 Mg 1.25729 25.5968 -0.0476014 1.2 0.0119995
78 3 O 2.50767 23.9706 5.72949 -1.2 0.0168581
79 1 Mg 1.29799 28.4166 1.45362 1.2 0
80 2 Si -0.869022 26.5911 1.44205 2.4 0.00503589
81 3 O 2.41431 26.5078 1.44995 -1.2 0
82 3 O 0.194029 30.1916 1.46928 -1.2 0.0178598
83 3 O -0.145682 27.2506 0.17897 -1.2 0
84 3 O -0.194598 27.2461 2.736 -1.2 0.0206241
85 1 Mg -1.16963 30.6829 -0.0443664 1.2 0
86 1 Mg 3.57273 33.505 1.4751 1.2 0
87 2 Si 0.891837 31.6776 1.45708 2.4 0
88 3 O 2.45586 31.596 1.4602 -1.2 0
89 3 O -0.167595 35.2799 1.45164 -1.2 0
90 3 O 0.215141 32.3192 0.160286 -1.2 0
91 1 Mg -1.22784 30.6987 2.95744 1.2 0.00813334
92 3 O 0.173903 32.3519 2.71812 -1.2 0
93 1 Mg -1.16492 38.0662 4.44427 1.2 0
94 2 Si 1.51792 39.8935 4.4642 2.4 0
95 3 O -0.0462441 39.9743 4.46125 -1.2 0
96 3 O 2.57295 36.2908 4.46606 -1.2 0
97 3 O 2.23172 39.2213 3.19982 -1.2 0
98 3 O 2.19902 39.2463 5.75643 -1.2 0
99 1 Mg 1.20232 35.7858 2.9585 1.2 0
100 1 Mg 1.09873 32.9802 4.46103 1.2 0
101 2 Si 3.26833 34.8047 4.46793 2.4 0
102 3 O -0.0147688 34.8856 4.4629 -1.2 0
103 3 O 2.19866 31.202 4.44774 -1.2 0.0185691
104 3 O 2.58725 34.1458 3.18012 -1.2 0.00415232
105 1 Mg 1.25031 35.7735 -0.0430764 1.2 0.00068791
106 3 O 2.55091 34.1451 5.73581 -1.2 0
107 1 Mg 1.30059 38.5933 1.4615 1.2 0
108 2 Si -0.864428 36.7663 1.44913 2.4 0
109 3 O 2.41882 36.684 1.45556 -1.2 0
110 3 O 0.195811 40.3697 1.47192 -1.2 0
111 3 O -0.149407 37.425 0.180637 -1.2 0
112 3 O -0.182388 37.4248 2.73722 -1.2 0.00515106
113 1 Mg -1.17654 40.8627 -0.0380034 1.2 0
114 1 Mg 3.57312 43.6834 1.4806 1.2 0
115 2 Si 0.89282 41.8558 1.46237 2.4 0
116 3 O 2.45692 41.7745 1.46568 -1.2 0
117 3 O -0.169778 45.4601 1.46184 -1.2 0.091924
118 3 O 0.210346 42.5013 0.170212 -1.2 0
119 1 Mg -1.21819 40.8752 2.96324 1.2 0.00316322
120 3 O 0.179335 42.5274 2.72732 -1.2 0
121 1 Mg -1.16227 48.2462 4.45482 1.2 0
122 2 Si 1.51776 50.0733 4.47314 2.4 0
123 3 O -0.0464131 50.1543 4.47016 -1.2 0
124 3 O 2.58044 46.469 4.47289 -1.2 0
125 3 O 2.23022 49.4025 3.20724 -1.2 0
126 3 O 2.20234 49.4258 5.76356 -1.2 0
127 1 Mg 1.20519 45.965 2.96723 1.2 0
128 1 Mg 1.11211 43.1568 4.46485 1.2 0
129 2 Si 3.27755 44.9833 4.47505 2.4 0
130 3 O -0.00558953 45.0644 4.47006 -1.2 0
131 3 O 2.21563 41.3788 4.45574 -1.2 0
132 3 O 2.59293 44.3229 3.18965 -1.2 0
133 1 Mg 1.24301 45.9538 -0.0339844 1.2 0
134 3 O 2.56558 44.3242 5.74573 -1.2 0
135 1 Mg 1.29612 48.7739 1.47092 1.2 0
136 2 Si -0.867294 46.946 1.45936 2.4 0
137 3 O 2.41592 46.8642 1.46494 -1.2 0
138 3 O 0.189869 50.5505 1.47975 -1.2 0
139 3 O -0.155645 47.6046 0.188762 -1.2 0
140 3 O -0.182726 47.606 2.74521 -1.2 0
141 1 Mg -1.18516 51.0443 -0.0289924 1.2 0
142 1 Mg 3.56501 53.8641 1.49009 1.2 0
143 2 Si 0.886079 52.0369 1.47116 2.4 0
144 3 O 2.45023 51.9557 1.47452 -1.2 0
145 3 O -0.179838 55.6418 1.47171 -1.2 0.0935858
146 3 O 0.202116 52.6835 0.180226 -1.2 0
147 1 Mg -1.22182 51.0551 2.97209 1.2 0.00254603
148 3 O 0.173154 52.7075 2.73697 -1.2 0
149 1 Mg -1.1767 58.4283 4.46434 1.2 0
150 2 Si 1.49989 60.2549 4.4822 2.4 0
151 3 O -0.0643022 60.3361 4.47929 -1.2 0
152 3 O 2.57009 56.6499 4.48278 -1.2 0.0969222
153 3 O 2.21446 59.5839 3.21749 -1.2 0
154 3 O 2.18433 59.6092 5.77364 -1.2 0
155 1 Mg 1.19515 56.1465 2.97724 1.2 0
156 1 Mg 1.10686 53.3368 4.47322 1.2 0
157 2 Si 3.2688 55.1648 4.48489 2.4 0
158 3 O -0.0143701 55.246 4.47967 -1.2 0
159 3 O 2.21386 51.5595 4.4651 -1.2 0
160 3 O 2.58448 54.504 3.19946 -1.2 0.00594135
161 1 Mg 1.23289 56.1351 -0.0239804 1.2 0
162 3 O 2.55848 54.5052 5.7559 -1.2 0.0227089
163 1 Mg 1.28372 58.9557 1.47958 1.2 0
164 2 Si -0.878073 57.1273 1.4694 2.4 0
165 3 O 2.40513 57.0457 1.4747 -1.2 0
166 3 O 0.175267 60.7318 1.48977 -1.2 0
167 3 O -0.166165 57.7865 0.199075 -1.2 0
168 3 O -0.19474 57.7876 2.75552 -1.2 0.00636679
169 1 Mg -1.19749 61.2259 -0.0199264 1.2 0
170 1 Mg 3.54704 64.0452 1.50204 1.2 0
171 2 Si 0.870531 62.2185 1.48068 2.4 0
172 3 O 2.43473 62.1374 1.48416 -1.2 0
173 3 O -0.199577 65.8231 1.47977 -1.2 0
174 3 O 0.188898 62.8637 0.187935 -1.2 0
175 1 Mg -1.23873 61.2363 2.98136 1.2 0
176 3 O 0.154594 62.89 2.7446 -1.2 0
177 1 Mg -1.21124 68.6112 4.47105 1.2 0
178 2 Si 1.45997 70.4368 4.48995 2.4 0.00031844
179 3 O -0.104262 70.5183 4.48709 -1.2 0
180 3 O 2.54017 66.8319 4.49419 -1.2 0
181 3 O 2.18082 69.7636 3.2296 -1.2 0.0149243
182 3 O 2.14058 69.7959 5.78568 -1.2 0
183 1 Mg 1.17047 66.3285 2.98711 1.2 0
184 1 Mg 1.0829 63.5183 4.48312 1.2 0
185 2 Si 3.24087 65.3476 4.49612 2.4 0
186 3 O -0.0423479 65.4289 4.49012 -1.2 0
187 3 O 2.19421 61.742 4.47333 -1.2 0
188 3 O 2.56059 64.687 3.20837 -1.2 0.0161091
189 1 Mg 1.21809 66.3153 -0.0145854 1.2 0.00504193
190 3 O 2.52905 64.6866 5.76528 -1.2 0.0154273
191 1 Mg 1.26098 69.1371 1.48594 1.2 0.000313586
192 2 Si -0.898749 67.3082 1.47771 2.4 0
193 3 O 2.38445 67.2266 1.48333 -1.2 0
194 3 O 0.148669 70.9115 1.50069 -1.2 0.00858409
195 3 O -0.182912 67.9686 0.209992 -1.2 0
196 3 O -0.22078 67.9679 2.7666 -1.2 0.0162906
197 1 Mg -1.21597 71.4053 -0.0125114 1.2 0
198 1 Mg 3.51418 74.2248 1.51579 1.2 0.00208667
199 2 Si 0.842436 72.3988 1.48936 2.4 0
200 3 O 2.40672 72.3179 1.49317 -1.2 0
201 3 O -0.234791 76.0022 1.48361 -1.2 0.00705846
202 3 O 0.167959 73.0391 0.190921 -1.2 0
203 1 Mg -1.27302 71.4168 2.98954 1.2 0.0127238
204 3 O 0.118811 73.0733 2.74784 -1.2 0.025407
205 1 Mg -1.27794 78.7942 4.4714 1.2 0.00293286
206 2 Si 1.38272 80.6184 4.49257 2.4 0.00467162
207 3 O -0.181607 80.7001 4.48981 -1.2 0.00902189
208 3 O 2.48107 77.0136 4.50562 -1.2 0.00372714
209 3 O 2.11676 79.9399 3.24178 -1.2 0.054924
210 3 O 2.05462 79.9875 5.79748 -1.2 0.0252589
211 1 Mg 1.12349 76.5099 2.99498 1.2 0
212 1 Mg 1.03331 73.6996 4.49295 1.2 0.000215079
213 2 Si 3.18506 75.5308 4.50741 2.4 0.00521222
214 3 O -0.0982092 75.6122 4.49983 -1.2 0.00749407
215 3 O 2.15163 71.9252 4.47851 -1.2 0
216 3 O 2.51411 74.8708 3.21435 -1.2 0.0297484
217 1 Mg 1.19496 76.4918 -0.00783141 1.2 0.0126232
218 3 O 2.46843 74.8671 5.77201 -1.2 0.0111021
219 1 Mg 1.22043 79.3168 1.48622 1.2 0.0142127
220 2 Si -0.935528 77.4866 1.48167 2.4 0
221 3 O 2.3477 77.4048 1.48829 -1.2 0.0303187
222 3 O 0.0998334 81.0875 1.51052 -1.2 0.00450305
223 3 O -0.210521 78.1489 0.219799 -1.2 0.00757858
224 3 O -0.269449 78.1449 2.77682 -1.2 0.0193326
225 1 Mg -1.24699 81.5795 -0.0103734 1.2 0.00198074
226 1 Mg 3.45036 84.4021 1.53099 1.2 0.0154129
227 2 Si 0.790191 82.5763 1.49387 2.4 0
228 3 O 2.35461 82.4955 1.49867 -1.2 0.0391659
229 3 O -0.305211 86.1795 1.4768 -1.2 0
230 3 O 0.131688 83.205 0.182647 -1.2 0
231 1 Mg -1.33836 81.5951 2.99296 1.2 0.0329897
232 3 O 0.050153 83.2576 2.74035 -1.2 0.074595
233 1 Mg -1.41961 88.9823 4.45518 1.2 0
234 2 Si 1.21278 90.8051 4.47789 2.4 0.0125651
235 3 O -0.351931 90.8879 4.47622 -1.2 0.0758638
236 3 O 2.36112 87.1963 4.51274 -1.2 0.0182748
237 3 O 1.97598 90.1164 3.24824 -1.2 0.190126
238 3 O 1.8699 90.1956 5.80043 -1.2 0.064855
239 1 Mg 1.02845 86.6934 2.99548 1.2 0.0242036
240 1 Mg 0.935424 83.881 4.49883 1.2 0.0124598
241 2 Si 3.073 85.7171 4.51445 2.4 0.00924073
242 3 O -0.210389 85.7983 4.50436 -1.2 0.0711511
243 3 O 2.06871 82.1092 4.47546 -1.2 0.00126523
244 3 O 2.42139 85.0573 3.21123 -1.2 0
245 1 Mg 1.15208 86.6617 -0.00849641 1.2 0.0414219
246 3 O 2.34836 85.0468 5.77007 -1.2 0
247 1 Mg 1.13418 89.5015 1.46816 1.2 0
248 2 Si -1.0096 87.6632 1.47433 2.4 0
249 3 O 2.27381 87.5797 1.48272 -1.2 0.0639969
250 3 O -0.0150919 91.2606 1.51385 -1.2 0.056055
251 3 O -0.264615 88.3278 0.224692 -1.2 0.0564468
252 3 O -0.370844 88.3187 2.783 -1.2 0.0309927
253 1 Mg -1.3193 91.7493 -0.0243104 1.2 0.0762875
254 1 Mg 3.27213 94.5917 1.55581 1.2 0.0967631
255 2 Si 0.662458 92.756 1.48373 2.4 0
256 3 O 2.227 92.6734 1.49548 -1.2 0
257 3 O -0.529122 96.3821 1.45643 -1.2 0.362665
258 3 O 0.0497658 93.3495 0.137782 -1.2 0.0851513
259 1 Mg -1.48875 91.7745 2.97961 1.2 0.0800666
260 3 O -0.119757 93.452 2.69903 -1.2 0.250911
261 1 Mg -1.8797 99.2341 4.40534 1.2 0.178725
262 2 Si 0.635733 101.066 4.3392 2.4 0.318561
263 3 O -0.931081 101.17 4.3692 -1.2 0.273456
264 3 O 2.02972 97.4051 4.49621 -1.2 0.34743
265 3 O 1.43706 100.458 3.09151 -1.2 0.639339
266 3 O 1.31674 100.449 5.65395 -1.2 0.530815
267 1 Mg 0.754088 96.9188 2.96643 1.2 0.214905
268 1 Mg 0.69916 94.0738 4.48164 1.2 0.0140127
269 2 Si 2.77748 95.9396 4.50031 2.4 0.0500074
270 3 O -0.506906 96.0172 4.48893 -1.2 0.0870553
271 3 O 1.87974 92.3037 4.45006 -1.2 0.0269017
272 3 O 2.17017 95.2574 3.18992 -1.2 0.216558
273 1 Mg 1.01231 96.8602 -0.0320464 1.2 0.356001
274 3 O 2.05613 95.2507 5.7472 -1.2 0.0824697
275 1 Mg 0.677907 99.8839 1.29703 1.2 0.595047
276 2 Si -1.26325 97.8574 1.46206 2.4 0.18343
277 3 O 2.03106 97.7259 1.46409 -1.2 0.229195
278 3 O -0.679242 101.613 1.42377 -1.2 0.836977
279 3 O -0.485291 98.5446 0.247022 -1.2 0.399643
280 3 O -0.714693 98.5338 2.79983 -1.2 0.303665
281 1 Mg 2.69983 102.047 0.113854 1.2 0.743874
282 1 Mg 6.88814 105.075 1.63834 1.2 0.80621
283 2 Si 4.66936 103.205 1.24253 2.4 0.53886
284 3 O 6.24353 103.139 1.31009 -1.2 0.922609
285 3 O 2.76763 106.927 1.75848 -1.2 0.792454
286 3 O 3.94415 103.588 -0.0976214 -1.2 0.972504
287 1 Mg 2.71241 102.126 2.90952 1.2 0.577846
288 3 O 3.87814 103.838 2.51324 -1.2 0.924323
289 1 Mg 1.89523 109.605 4.66757 1.2 0.193617
290 2 Si 4.46622 111.441 4.625 2.4 0.0365096
291 3 O 2.90423 111.528 4.63471 -1.2 0.00641442
292 3 O 5.85928 107.72 4.58069 -1.2 0.6715
293 3 O 5.09649 110.86 3.289 -1.2 0.4125
294 3 O 5.26117 110.737 5.8303 -1.2 0.454531
295 1 Mg 4.40012 107.092 3.07005 1.2 0.49047
296 1 Mg 4.71199 104.238 4.37515 1.2 0.536504
297 2 Si 6.63089 106.279 4.6497 2.4 0.307472
298 3 O 3.34271 106.358 4.60445 -1.2 0.484118
299 3 O 6.09029 102.601 4.35704 -1.2 0.446068
300 3 O 5.96632 105.517 3.41582 -1.2 0.842474
301 1 Mg 3.99237 107.479 0.274252 1.2 0.638626
302 3 O 6.03158 105.623 5.96461 -1.2 0.311285
303 1 Mg 4.07309 110.222 1.68589 1.2 0.355938
304 2 Si 1.9647 108.371 1.68337 2.4 0.238363
305 3 O 5.24918 108.311 1.70649 -1.2 0.649528
306 3 O 2.85121 111.933 1.52457 -1.2 0.242869
307 3 O 2.46985 108.887 0.24978 -1.2 0.592145
308 3 O 2.68324 109.178 2.82618 -1.2 0.846451
309 1 Mg 1.3192 112.419 0.0716846 1.2 0.238409
310 1 Mg 6.1532 115.223 1.52977 1.2 0.00528498
311 2 Si 3.51949 113.429 1.54386 2.4 0.0416114
312 3 O 5.08326 113.33 1.55358 -1.2 0.0240955
313 3 O 2.39342 116.988 1.58421 -1.2 0.0332249
314 3 O 2.73141 114.103 0.32613 -1.2 0.281153
315 1 Mg 1.58472 112.425 3.0979 1.2 0.159559
316 3 O 2.89658 114.034 2.88663 -1.2 0.177237
317 1 Mg 1.54555 119.758 4.57969 1.2 0.0288843
318 2 Si 4.18825 121.572 4.54686 2.4 0
319 3 O 2.62397 121.654 4.54735 -1.2 0.0331327
320 3 O 5.32322 117.98 4.53881 -1.2 0.0086934
321 3 O 4.84757 120.935 3.24027 -1.2 0.0279085
322 3 O 4.93617 120.905 5.79602 -1.2 0.0931326
323 1 Mg 3.8612 117.478 3.0551 1.2 0.0519103
324 1 Mg 3.92281 114.664 4.56282 1.2 0.0264418
325 2 Si 6.03965 116.503 4.55097 2.4 0
326 3 O 2.75577 116.585 4.55971 -1.2 0.0759694
327 3 O 5.12846 112.941 4.65091 -1.2 0.0515867
328 3 O 5.29964 115.82 3.31014 -1.2 0.0673558
329 1 Mg 3.69885 117.466 0.0478036 1.2 0.0513809
330 3 O 5.40999 115.86 5.86986 -1.2 0
331 1 Mg 3.83743 120.288 1.56081 1.2 0
332 2 Si 1.68354 118.467 1.56265 2.4 0
333 3 O 4.96717 118.384 1.55862 -1.2 0.0844348
334 3 O 2.70339 122.05 1.51005 -1.2 0.0217589
335 3 O 2.32054 119.094 0.237708 -1.2 0.0284775
336 3 O 2.42292 119.154 2.80246 -1.2 0.047064
337 1 Mg 1.25106 122.544 0.0250696 1.2 0.0322664
338 1 Mg 6.05917 125.356 1.5136 1.2 0.00769707
339 2 Si 3.39312 123.538 1.51255 2.4 0
340 3 O 4.95714 123.455 1.51903 -1.2 0.025933
341 3 O 2.30783 127.13 1.54036 -1.2 0.0184928
342 3 O 2.65303 124.202 0.259584 -1.2 0.0344672
343 1 Mg 1.36655 122.554 3.031 1.2 0.0234501
344 3 O 2.72993 124.182 2.81777 -1.2 0
345 1 Mg 1.41665 129.911 4.53708 1.2 0.00675323
346 2 Si 4.08166 131.732 4.53074 2.4 0
347 3 O 2.51741 131.813 4.5276 -1.2 0
348 3 O 5.17466 128.134 4.51423 -1.2 0.00507922
349 3 O 4.75688 131.081 3.23661 -1.2 0.00527801
350 3 O 4.80929 131.07 5.79243 -1.2 0.0184279
351 1 Mg 3.74239 127.631 3.0251 1.2 0.0113182
352 1 Mg 3.73126 124.821 4.51155 1.2 0.0278161
353 2 Si 5.88011 126.652 4.52339 2.4 0
354 3 O 2.59681 126.733 4.52449 -1.2 0.0226371
355 3 O 4.8722 123.063 4.55211 -1.2 0.00273656
356 3 O 5.15521 125.976 3.26815 -1.2 0.00600959
357 1 Mg 3.65558 127.619 0.0217096 1.2 0.00120254
358 3 O 5.2209 126.006 5.82679 -1.2 0.00448055
359 1 Mg 3.7651 130.439 1.53881 1.2 0.00156301
360 2 Si 1.6052 128.613 1.52752 2.4 0
361 3 O 4.8885 128.532 1.52776 -1.2 0.0241123
362 3 O 2.64684 132.209 1.50815 -1.2 0
363 3 O 2.26983 129.253 0.223131 -1.2 0
364 3 O 2.32869 129.29 2.78323 -1.2 0.00959973
365 1 Mg 1.21848 132.704 0.0168976 1.2 0.0140186
366 1 Mg 6.01472 135.519 1.51553 1.2 0
367 2 Si 3.34028 133.697 1.50836 2.4 0.00427116
368 3 O 4.90437 133.614 1.51416 -1.2 0
369 3 O 2.26636 137.296 1.53179 -1.2 0.0186725
370 3 O 2.61665 134.358 0.245038 -1.2 0.00392868
371 1 Mg 1.2869 132.713 3.01988 1.2 0
372 3 O 2.66328 134.349 2.80194 -1.2 0.0174367
373 1 Mg 1.35512 140.079 4.52736 1.2 0
374 2 Si 4.02902 141.903 4.53081 2.4 0.00129839
375 3 O 2.46483 141.985 4.52682 -1.2 0
376 3 O 5.10619 138.302 4.51312 -1.2 0.0189914
377 3 O 4.71115 141.248 3.24225 -1.2 0.00512278
378 3 O 4.74698 141.243 5.79819 -1.2 0
379 1 Mg 3.68681 137.799 3.02138 1.2 0.00683943
380 1 Mg 3.65047 134.989 4.5053 1.2 0.00368512
381 2 Si 5.80758 136.818 4.52109 2.4 0
382 3 O 2.52438 136.899 4.51992 -1.2 0
383 3 O 4.77239 133.22 4.53196 -1.2 0
384 3 O 5.09097 136.145 3.25907 -1.2 0.00350671
385 1 Mg 3.63068 137.788 0.0193686 1.2 0
386 3 O 5.13414 136.17 5.81673 -1.2 0
387 1 Mg 3.72831 140.608 1.53666 1.2 0
388 2 Si 1.56623 138.78 1.52202 2.4 0
389 3 O 4.84944 138.699 1.52379 -1.2 0
390 3 O 2.61631 142.381 1.51449 -1.2 0
391 3 O 2.24221 139.425 0.226074 -1.2 0
392 3 O 2.28221 139.454 2.78437 -1.2 0
393 1 Mg 1.19818 142.876 0.0203226 1.2 0.00426077
394 1 Mg 5.98931 145.693 1.52228 1.2 0
395 2 Si 3.31127 143.868 1.51342 2.4 0
396 3 O 4.87538 143.786 1.51877 -1.2 0
397 3 O 2.24313 147.47 1.53417 -1.2 0
398 3 O 2.59474 144.528 0.245615 -1.2 0
399 1 Mg 1.24635 142.886 3.02222 1.2 0
400 3 O 2.62868 144.525 2.80207 -1.2 0.00420581
401 1 Mg 1.32568 150.255 4.5288 1.2 0
402 2 Si 4.00468 152.081 4.53716 2.4 0
403 3 O 2.44053 152.162 4.53258 -1.2 0
404 3 O 5.07222 148.477 4.51845 -1.2 0
405 3 O 4.68861 151.423 3.25052 -1.2 0
406 3 O 4.71861 151.422 5.80673 -1.2 0
407 1 Mg 3.65785 147.974 3.0256 1.2 0.00341583
408 1 Mg 3.60972 145.164 4.50963 1.2 0
409 2 Si 5.77125 146.992 4.52609 2.4 0
410 3 O 2.48809 147.073 4.52411 -1.2 0
411 3 O 4.72288 143.391 4.53039 -1.2 0
412 3 O 5.05794 146.321 3.26136 -1.2 0
413 1 Mg 3.61413 147.964 0.0240286 1.2 0
414 3 O 5.09123 146.344 5.81845 -1.2 0
415 1 Mg 3.70822 150.783 1.54217 1.2 0
416 2 Si 1.54436 148.956 1.52541 2.4 0
417 3 O 4.82753 148.875 1.52806 -1.2 0
418 3 O 2.59928 152.558 1.52255 -1.2 0
419 3 O 2.2247 149.602 0.232687 -1.2 0
420 3 O 2.25777 149.627 2.79023 -1.2 0
421 1 Mg 1.18425 153.053 0.0271786 1.2 0.000579336
422 1 Mg 5.97525 155.871 1.52943 1.2 0
423 2 Si 3.29518 154.045 1.52066 2.4 0
424 3 O 4.8593 153.963 1.52602 -1.2 0
425 3 O 2.23133 157.647 1.54083 -1.2 0
426 3 O 2.58052 154.704 0.251626 -1.2 0
427 1 Mg 1.22638 153.063 3.02893 1.2 0
428 3 O 2.61187 154.703 2.80799 -1.2 0
429 1 Mg 1.31887 160.434 4.53423 1.2 0
430 2 Si 4.00195 162.26 4.54563 2.4 0
431 3 O 2.43784 162.342 4.54021 -1.2 0
432 3 O 5.06102 158.656 4.5245 -1.2 0
433 3 O 4.68342 161.601 3.2581 -1.2 0.00395827
434 3 O 4.71601 161.601 5.81478 -1.2 0
435 1 Mg 3.64607 158.151 3.03208 1.2 0.0040517
436 1 Mg 3.59281 155.343 4.51588 1.2 0
437 2 Si 5.75817 157.171 4.53303 2.4 0
438 3 O 2.47505 157.252 4.53074 -1.2 0
439 3 O 4.7006 153.567 4.53592 -1.2 0
440 3 O 5.04426 156.499 3.26874 -1.2 0
441 1 Mg 3.60255 158.141 0.0302256 1.2 0
442 3 O 5.0765 156.524 5.8256 -1.2 0
443 1 Mg 3.6996 160.96 1.55078 1.2 0
444 2 Si 1.53355 159.133 1.53149 2.4 0
445 3 O 4.81669 159.052 1.5348 -1.2 0
446 3 O 2.5921 162.735 1.52881 -1.2 0
447 3 O 2.21335 159.779 0.238265 -1.2 0
448 3 O 2.24839 159.805 2.79559 -1.2 0
449 1 Mg 1.17439 163.229 0.0335076 1.2 0.00438601
450 1 Mg 5.97012 166.048 1.53293 1.2 0
451 2 Si 3.28877 164.221 1.52628 2.4 0
452 3 O 4.85289 164.139 1.53211 -1.2 0
453 3 O 2.22937 167.822 1.54754 -1.2 0.00837466
454 3 O 2.57148 164.88 0.25883 -1.2 0
455 1 Mg 1.22211 163.241 3.03588 1.2 0
456 3 O 2.60926 164.879 2.81532 -1.2 0.00143218
457 1 Mg 1.33535 170.611 4.53869 1.2 0
458 2 Si 4.02319 172.438 4.55185 2.4 0.00309654
459 3 O 2.45915 172.52 4.54515 -1.2 0
460 3 O 5.07151 168.835 4.52658 -1.2 0.011639
461 3 O 4.69681 171.779 3.26024 -1.2 0.0173652
462 3 O 4.74166 171.777 5.81777 -1.2 0
463 1 Mg 3.64997 168.328 3.03644 1.2 0.00853425
464 1 Mg 3.59629 165.523 4.51945 1.2 0
465 2 Si 5.7665 167.349 4.53774 2.4 0.000668456
466 3 O 2.48342 167.43 4.53547 -1.2 0
467 3 O 4.69983 163.746 4.5439 -1.2 0
468 3 O 5.0477 166.674 3.27733 -1.2 0
469 1 Mg 3.5943 168.316 0.0334886 1.2 0
470 3 O 5.08767 166.707 5.83431 -1.2 0
471 1 Mg 3.70213 171.134 1.55833 1.2 0.00188803
472 2 Si 1.53258 169.308 1.53576 2.4 0
473 3 O 4.81567 169.227 1.53967 -1.2 0
474 3 O 2.59477 172.906 1.52801 -1.2 0
475 3 O 2.20651 169.949 0.23805 -1.2 0
476 3 O 2.25351 169.982 2.79559 -1.2 0.0168661
477 1 Mg 1.16711 173.399 0.0339106 1.2 0.0143076
478 1 Mg 5.97428 176.218 1.52468 1.2 0.0115353
479 2 Si 3.29222 174.392 1.52459 2.4 0
480 3 O 4.85634 174.31 1.53144 -1.2 0.00682067
481 3 O 2.23957 177.987 1.548 -1.2 0
482 3 O 2.56634 175.052 0.262378 -1.2 0.00984801
483 1 Mg 1.23497 173.417 3.03798 1.2 0
484 3 O 2.62308 175.049 2.81925 -1.2 0.00459727
485 1 Mg 1.38844 180.783 4.53354 1.2 0.00910497
486 2 Si 4.0856 182.611 4.54595 2.4 0.00383007
487 3 O 2.52179 182.693 4.53752 -1.2 0.0622013
488 3 O 5.11292 179.011 4.51546 -1.2 0.00216634
489 3 O 4.7411 181.952 3.2451 -1.2 0
490 3 O 4.81425 181.948 5.80396 -1.2 0
491 1 Mg 3.67504 178.497 3.03077 1.2 0.0345905
492 1 Mg 3.62522 175.699 4.5133 1.2 0.00408704
493 2 Si 5.80392 177.523 4.53246 2.4 0.00501012
494 3 O 2.52089 177.604 4.53083 -1.2 0.0100043
495 3 O 4.72373 173.922 4.54968 -1.2 0
496 3 O 5.07343 176.842 3.28152 -1.2 0.0444926
497 1 Mg 3.58808 178.481 0.0254806 1.2 0.00666559
498 3 O 5.13379 176.892 5.83877 -1.2 0.00463523
499 1 Mg 3.72134 181.299 1.55758 1.2 0
500 2 Si 1.54441 179.474 1.53057 2.4 0
501 3 O 4.82747 179.393 1.53532 -1.2 0.0281736
502 3 O 2.61325 183.066 1.50756 -1.2 0.0271205
503 3 O 2.20334 180.105 0.221726 -1.2 0
504 3 O 2.27968 180.155 2.77987 -1.2 0.0511523
505 1 Mg 1.16077 183.554 0.0158776 1.2 0.0367733
506 1 Mg 5.99411 186.378 1.48085 1.2 0
507 2 Si 3.31184 184.552 1.50147 2.4 0
508 3 O 4.87597 184.469 1.51025 -1.2 0.0528946
509 3 O 2.27815 188.135 1.53063 -1.2 0
510 3 O 2.5648 185.212 0.252037 -1.2 0.0894528
511 1 Mg 1.27737 183.584 3.02309 1.2 0.0295762
512 3 O 2.6685 185.205 2.80977 -1.2 0.0191289
513 1 Mg 1.54631 190.954 4.48808 1.2 0.0141739
514 2 Si 4.28473 192.806 4.46411 2.4 0.0208187
515 3 O 2.72035 192.885 4.45332 -1.2 0.0451384
516 3 O 5.23115 189.187 4.45763 -1.2 0.0200586
517 3 O 4.88767 192.144 3.14043 -1.2 0.165493
518 3 O 5.01855 192.121 5.70516 -1.2 0.160666
519 1 Mg 3.74953 188.649 2.98822 1.2 0.0772341
520 1 Mg 3.70665 185.87 4.47817 1.2 0.0212282
521 2 Si 5.9067 187.692 4.49173 2.4 0.0123262
522 3 O 2.62386 187.777 4.49332 -1.2 0.0636603
523 3 O 4.79184 184.093 4.54303 -1.2 0
524 3 O 5.14744 186.996 3.26638 -1.2 0.201304
525 1 Mg 3.58485 188.622 -0.0187294 1.2 0.063144
526 3 O 5.25525 187.088 5.82002 -1.2 0.0395173
527 1 Mg 3.78383 191.455 1.52519 1.2 0.0783605
528 2 Si 1.58595 189.623 1.49213 2.4 0
529 3 O 4.87067 189.534 1.50462 -1.2 0
530 3 O 2.71724 193.266 1.36966 -1.2 0.350506
531 3 O 2.20357 190.219 0.152979 -1.2 0.0505735
532 3 O 2.36105 190.335 2.70548 -1.2 0.184745
533 1 Mg 1.1595 193.651 -0.0642034 1.2 0.327487
534 1 Mg 6.14975 196.589 1.32634 1.2 0.587424
535 2 Si 3.43833 194.742 1.38414 2.4 0.149354
536 3 O 5.00037 194.624 1.40666 -1.2 0.176387
537 3 O 2.51303 198.421 1.401 -1.2 0.845024
538 3 O 2.66521 195.485 0.194294 -1.2 0.578868
539 1 Mg 1.44603 193.771 2.92341 1.2 0.186012
540 3 O 2.86324 195.372 2.73947 -1.2 0.301991
541 1 Mg 2.16127 200.881 4.20706 1.2 0.886863
542 2 Si 5.41452 203.221 4.66067 2.4 0.460688
543 3 O 3.88347 203.556 4.69089 -1.2 0.700296
544 3 O 5.662 199.348 4.24232 -1.2 0.569882
545 3 O 5.70143 202.171 3.57187 -1.2 0.844742
546 3 O 5.97296 202.647 6.05368 -1.2 0.63229
547 1 Mg 4.19228 198.962 2.70643 1.2 0.742903
548 1 Mg 4.01288 196.078 4.33032 1.2 0.233345
549 2 Si 6.29478 197.844 4.27409 2.4 0.411954
550 3 O 3.01244 197.991 4.28852 -1.2 0.395377
551 3 O 5.01835 194.274 4.46094 -1.2 0.274025
552 3 O 5.44795 197.159 3.10545 -1.2 0.768731
553 1 Mg 3.39599 198.303 -0.31497 1.2 0.87751
554 3 O 5.67953 197.297 5.65634 -1.2 0.574147
555 1 Mg 4.4374 201.988 1.85106 1.2 0.815809
556 2 Si 2.03003 200.015 1.1484 2.4 0.588428
557 3 O 5.32859 200.154 1.29208 -1.2 0.910789
558 3 O 4.9237 203.975 1.81311 -1.2 0.890377
559 3 O 2.39958 200.169 -0.407897 -1.2 0.9679
560 3 O 2.8998 200.657 2.34723 -1.2 0.902615
561 1 Mg -2.21056 -0.0813849 6.2111 1.2 0.693565
562 1 Mg 2.89308 3.06967 7.56314 1.2 0.319109
563 2 Si -0.0115019 1.14198 7.59877 2.4 0.29198
564 3 O 1.55382 1.06692 7.5946 -1.2 0.550135
565 3 O -0.730577 4.82343 7.5052 -1.2 0.113349
566 3 O -0.548832 1.88093 6.28971 -1.2 0.529843
567 1 Mg -2.19151 0.264278 9.13114 1.2 0.366539
568 3 O -0.688972 1.87905 8.85152 -1.2 0.308871
569 1 Mg -1.73204 7.54606 10.5276 1.2 0.0362842
570 2 Si 1.03834 9.40196 10.4938 2.4 0.0408064
571 3 O -0.523353 9.48856 10.5044 -1.2 0.0774868
572 3 O 1.91713 5.78481 10.5616 -1.2 0.0711762
573 3 O 1.76309 8.7213 9.24347 -1.2 0.0168642
574 3 O 1.67865 8.73426 11.7963 -1.2 0
575 1 Mg 0.582986 5.30271 9.0467 1.2 0.191207
576 1 Mg 0.27747 2.45297 10.6041 1.2 0.0883823
577 2 Si 2.56404 4.2787 10.5342 2.4 0.0835592
578 3 O -0.719469 4.35982 10.5422 -1.2 0
579 3 O 1.19705 0.596556 10.5457 -1.2 0.385183
580 3 O 1.88852 3.68022 9.2145 -1.2 0.269972
581 1 Mg 0.780175 5.38208 6.05194 1.2 0.290672
582 3 O 1.79048 3.59196 11.7593 -1.2 0.3579
583 1 Mg 0.874266 8.13888 7.48068 1.2 0.0256811
584 2 Si -1.3749 6.3355 7.53621 2.4 0.10892
585 3 O 1.9096 6.24087 7.52857 -1.2 0.0339519
586 3 O -0.173316 9.90942 7.53266 -1.2 0.0477685
587 3 O -0.587556 7.00563 6.30802 -1.2 0.359125
588 3 O -0.719163 6.92614 8.85996 -1.2 0.129755
589 1 Mg -1.48563 10.4024 6.00609 1.2 0.0445107
590 1 Mg 3.26908 13.2146 7.50508 1.2 0
591 2 Si 0.550908 11.3847 7.51617 2.4 0
592 3 O 2.11376 11.2995 7.50968 -1.2 0
593 3 O -0.425722 14.9681 7.45807 -1.2 0.00846286
594 3 O -0.0839622 12.02 6.19447 -1.2 0
595 1 Mg -1.62896 10.3916 9.00764 1.2 0.0525429
596 3 O -0.177689 12.0686 8.7602 -1.2 0.0158054
597 1 Mg -1.43253 17.7368 10.4609 1.2 0
598 2 Si 1.28026 19.5695 10.4644 2.4 0
599 3 O -0.283472 19.65 10.4666 -1.2 0.0330855
600 3 O 2.26299 15.9753 10.4963 -1.2 0
601 3 O 1.99957 18.8926 9.2068 -1.2 0
602 3 O 1.94107 18.9168 11.764 -1.2 0.00359834
603 1 Mg 0.915787 15.4734 8.97838 1.2 0.021662
604 1 Mg 0.724096 12.6705 10.5278 1.2 0.00721333
605 2 Si 2.94055 14.4829 10.489 2.4 0
606 3 O -0.342612 14.5638 10.491 -1.2 0.0309976
607 3 O 1.76481 10.8739 10.4877 -1.2 0.0384416
608 3 O 2.27092 13.8476 9.18527 -1.2 0.0168668
609 1 Mg 1.02584 15.4762 5.97258 1.2 0.0320528
610 3 O 2.19313 13.8115 11.7371 -1.2 0.131245
611 1 Mg 1.08679 18.277 7.456 1.2 0.00203942
612 2 Si -1.10779 16.4621 7.46251 2.4 0
613 3 O 2.17571 16.3755 7.46723 -1.2 0.0203241
614 3 O 0.00465187 20.0512 7.48277 -1.2 0.00903346
615 3 O -0.363678 17.1226 6.20978 -1.2 0.0602071
616 3 O -0.438902 17.0987 8.7666 -1.2 0
617 1 Mg -1.34312 20.5431 5.96519 1.2 0.00201138
618 1 Mg 3.40927 23.3619 7.47912 1.2 0.000726448
619 2 Si 0.712708 21.5329 7.47036 2.4 0
620 3 O 2.27638 21.4507 7.47022 -1.2 0.0300359
621 3 O -0.311706 25.1287 7.44965 -1.2 0
622 3 O 0.0497224 22.1745 6.16646 -1.2 0.00325221
623 1 Mg -1.42677 20.5514 8.96796 1.2 0.0128176
624 3 O -0.00697843 22.2095 8.72746 -1.2 0.0290931
625 1 Mg -1.30471 27.9087 10.4466 1.2 0.00457073
626 2 Si 1.39144 29.7382 10.4607 2.4 0
627 3 O -0.172572 29.8188 10.4595 -1.2 0
628 3 O 2.41499 26.1393 10.471 -1.2 0
629 3 O 2.1049 29.0649 9.19727 -1.2 0
630 3 O 2.06624 29.0875 11.7543 -1.2 0
631 1 Mg 1.05051 25.6351 8.96057 1.2 0
632 1 Mg 0.913915 22.8325 10.4776 1.2 0
633 2 Si 3.10273 24.6504 10.47 2.4 0
634 3 O -0.180291 24.731 10.4672 -1.2 0
635 3 O 1.9906 21.0485 10.4565 -1.2 0.0353149
636 3 O 2.42308 23.9994 9.17784 -1.2 0.0253351
637 1 Mg 1.11624 25.6281 5.95759 1.2 0.020683
638 3 O 2.37518 23.9881 11.732 -1.2 0
639 1 Mg 1.176 28.4402 7.45603 1.2 0
640 2 Si -1.00199 26.6184 7.44963 2.4 0.00427403
641 3 O 2.2813 26.5345 7.45534 -1.2 0
642 3 O 0.0826579 30.2167 7.47121 -1.2 0.00638952
643 3 O -0.277151 27.2771 6.18599 -1.2 0.0045949
644 3 O -0.321999 27.2691 8.74228 -1.2 0.0243598
645 1 Mg -1.2826 30.7095 5.95948 1.2 0
646 1 Mg 3.47326 33.5293 7.47577 1.2 0
647 2 Si 0.784856 31.7007 7.46147 2.4 0
648 3 O 2.34879 31.6192 7.46343 -1.2 0
649 3 O -0.259753 35.302 7.45503 -1.2 0
650 3 O 0.108495 32.3464 6.16624 -1.2 0
651 1 Mg -1.33537 30.7199 8.96123 1.2 0.00878231
652 3 O 0.0712676 32.3735 8.72496 -1.2 0.0359665
653 1 Mg -1.246 38.0852 10.4504 1.2 0
654 2 Si 1.4415 39.9134 10.4664 2.4 0
655 3 O -0.122609 39.9943 10.4641 -1.2 0
656 3 O 2.48667 36.3113 10.4684 -1.2 0
657 3 O 2.15208 39.2427 9.19977 -1.2 0.0318659
658 3 O 2.1243 39.263 11.7563 -1.2 0
659 1 Mg 1.11288 35.8075 8.96189 1.2 0
660 1 Mg 1.0037 33.0016 10.4655 1.2 0
661 2 Si 3.17958 34.8242 10.4695 2.4 0
662 3 O -0.103478 34.9049 10.4655 -1.2 0
663 3 O 2.09491 31.2207 10.4532 -1.2 0.0266154
664 3 O 2.49439 34.167 9.18284 -1.2 0.0120505
665 1 Mg 1.15665 35.7986 5.96002 1.2 0.0036285
666 3 O 2.46321 34.1646 11.7381 -1.2 0
667 1 Mg 1.21607 38.6149 7.46363 1.2 0
668 2 Si -0.953901 36.7897 7.45352 2.4 0
669 3 O 2.32934 36.707 7.45887 -1.2 0
670 3 O 0.115907 40.3918 7.47338 -1.2 0
671 3 O -0.238598 37.4477 6.18445 -1.2 0
672 3 O -0.268786 37.4463 8.74073 -1.2 0.0152928
673 1 Mg -1.25775 40.8854 5.96462 1.2 0
674 1 Mg 3.49796 43.705 7.48139 1.2 0
675 2 Si 0.814779 41.8771 7.46516 2.4 0
676 3 O 2.37884 41.7958 7.46791 -1.2 0
677 3 O -0.24261 45.4812 7.46445 -1.2 0.0886989
678 3 O 0.131827 42.5247 6.17408 -1.2 0
679 1 Mg -1.29557 40.8955 8.96581 1.2 0.00215031
680 3 O 0.103697 42.5476 8.73164 -1.2 0
681 1 Mg -1.22949 48.2658 10.4591 1.2 0
682 2 Si 1.45162 50.0931 10.4749 2.4 0
683 3 O -0.112538 50.1742 10.4723 -1.2 0
684 3 O 2.51214 46.4888 10.4743 -1.2 0
685 3 O 2.16215 49.4238 9.20733 -1.2 0