 # LAMMPS timestep 2500
  
         756  atoms
           3  atom types
 
      0.000000000000      30.595500000000  xlo xhi
      0.000000000000      17.937600000000  ylo yhi
      0.000000000000      14.247000000000  zlo zhi
 
Masses
 
            1   24.30500000             # Mg
            2   28.08500000             # Si
            3   15.99900000             # O
 
Atoms # charge
 
         1    1   1.200000        0.044182200000       0.027434700000       0.093874100000
         2    1   1.200000        7.387100000000       4.484520000000       4.698970000000
         3    2   2.400000        9.182480000000       4.676350000000       2.167130000000
         4    3  -1.200000        9.241800000000       4.598890000000       3.678870000000
         5    3  -1.200000        5.640690000000       4.722940000000       0.949160000000
         6    3  -1.200000        8.558730000000       5.887720000000       1.323980000000
         7    1   1.200000        0.066211400000       3.099480000000       0.143595000000
         8    3  -1.200000        8.474000000000       3.324880000000       1.482410000000
         9    1   1.200000        2.748230000000       1.676950000000       0.170996000000
        10    2   2.400000        0.993408000000       1.510260000000       2.816100000000
        11    3  -1.200000        0.874495000000       1.626480000000       1.321730000000
        12    3  -1.200000        4.563890000000       1.479410000000       3.838470000000
        13    3  -1.200000        1.679000000000       2.766940000000       3.547400000000
        14    3  -1.200000        1.599710000000       0.253057000000       3.384860000000
        15    1   1.200000        5.198140000000       3.085400000000       2.270690000000
        16    1   1.200000        7.822970000000       1.538580000000       2.144410000000
        17    2   2.400000        6.143080000000       1.516920000000       4.467600000000
        18    3  -1.200000        6.102460000000       1.476320000000       6.104130000000
        19    3  -1.200000       -0.536329000000       1.530110000000       3.526270000000
        20    3  -1.200000        6.728770000000       2.788040000000       3.746610000000
        21    1   1.200000        4.966180000000       6.158360000000       2.359300000000
        22    3  -1.200000        6.679660000000       0.198351000000       3.747670000000
        23    1   1.200000        2.321970000000       4.509620000000       2.305470000000
        24    2   2.400000        4.124530000000       4.540890000000       0.291157000000
        25    3  -1.200000        4.148670000000       4.578670000000      -1.247540000000
        26    3  -1.200000       10.733200000000       4.500420000000       1.420370000000
        27    3  -1.200000        3.423860000000       5.893310000000       1.002060000000
        28    3  -1.200000        3.510060000000       3.276440000000       1.086230000000
        29    1   1.200000       10.215600000000       0.009201860000      -0.148051000000
        30    1   1.200000       17.444700000000       4.453030000000       4.612230000000
        31    2   2.400000       19.392300000000       4.249030000000       2.042170000000
        32    3  -1.200000       19.476400000000       4.395170000000       3.633660000000
        33    3  -1.200000       15.801600000000       4.351760000000       1.125350000000
        34    3  -1.200000       18.759100000000       5.604880000000       1.390050000000
        35    1   1.200000       10.036600000000       3.008350000000       0.208302000000
        36    3  -1.200000       18.847200000000       2.982670000000       1.321960000000
        37    1   1.200000       12.938000000000       1.371590000000       0.025361700000
        38    2   2.400000       11.288500000000       1.580770000000       2.629850000000
        39    3  -1.200000       11.088800000000       1.567700000000       1.085340000000
        40    3  -1.200000       14.698600000000       1.486650000000       3.752330000000
        41    3  -1.200000       11.930800000000       2.737090000000       3.367570000000
        42    3  -1.200000       11.921100000000       0.224582000000       3.289450000000
        43    1   1.200000       15.150400000000       2.922000000000       2.444970000000
        44    1   1.200000       18.108200000000       1.236360000000       2.354550000000
        45    2   2.400000       16.177800000000       1.573450000000       4.459360000000
        46    3  -1.200000       15.990500000000       1.526880000000       6.005010000000
        47    3  -1.200000        9.765240000000       1.570420000000       3.290720000000
        48    3  -1.200000       16.919600000000       2.823250000000       3.774720000000
        49    1   1.200000       15.298800000000       5.927630000000       2.358630000000
        50    3  -1.200000       17.006000000000       0.299940000000       3.752590000000
        51    1   1.200000       12.484100000000       4.562830000000       2.529170000000
        52    2   2.400000       14.298200000000       4.396980000000       0.296624000000
        53    3  -1.200000       14.481700000000       4.387620000000      -1.269780000000
        54    3  -1.200000       20.842200000000       4.359650000000       1.463750000000
        55    3  -1.200000       13.817700000000       5.778380000000       0.950622000000
        56    3  -1.200000       13.553400000000       3.211030000000       1.070760000000
        57    1   1.200000       20.594900000000      -0.020326200000      -0.001564080000
        58    1   1.200000       27.648900000000       4.496040000000       4.796080000000
        59    2   2.400000       29.544500000000       4.536450000000       2.109240000000
        60    3  -1.200000       29.749700000000       4.683450000000       3.597730000000
        61    3  -1.200000       26.104000000000       4.544820000000       1.004720000000
        62    3  -1.200000       28.876300000000       5.778030000000       1.320970000000
        63    1   1.200000       20.325100000000       2.886090000000      -0.033043600000
        64    3  -1.200000       28.940800000000       3.168990000000       1.439220000000
        65    1   1.200000       23.156500000000       1.417700000000       0.107364000000
        66    2   2.400000       21.406500000000       1.283140000000       2.634660000000
        67    3  -1.200000       21.420700000000       1.359240000000       1.037890000000
        68    3  -1.200000       25.005900000000       1.453020000000       3.727580000000
        69    3  -1.200000       22.132200000000       2.494150000000       3.324000000000
        70    3  -1.200000       21.942600000000       0.048103700000       3.384630000000
        71    1   1.200000       25.590300000000       2.971200000000       2.339160000000
        72    1   1.200000       28.297300000000       1.406660000000       2.415840000000
        73    2   2.400000       26.409600000000       1.452870000000       4.536430000000
        74    3  -1.200000       26.428700000000       1.414740000000       6.103940000000
        75    3  -1.200000       19.903600000000       1.364780000000       3.419390000000
        76    3  -1.200000       27.192200000000       2.674960000000       3.917840000000
        77    1   1.200000       25.531400000000       5.915590000000       2.373040000000
        78    3  -1.200000       27.138600000000       0.137762000000       3.795980000000
        79    1   1.200000       22.733600000000       4.434150000000       2.334300000000
        80    2   2.400000       24.553500000000       4.463950000000       0.325945000000
        81    3  -1.200000       24.597700000000       4.534730000000      -1.231610000000
        82    3  -1.200000       31.103200000000       4.589040000000       1.366640000000
        83    3  -1.200000       23.882100000000       5.834670000000       1.088280000000
        84    3  -1.200000       23.981900000000       3.234270000000       0.948128000000
        85    1   1.200000       -0.011026800000       6.006560000000       0.091560500000
        86    1   1.200000        7.449140000000      10.488000000000       4.563570000000
        87    2   2.400000        9.291660000000      10.570100000000       1.975780000000
        88    3  -1.200000        9.333960000000      10.549000000000       3.533650000000
        89    3  -1.200000        5.473950000000      10.454600000000       0.846767000000
        90    3  -1.200000        8.509480000000      11.784300000000       1.197180000000
        91    1   1.200000        0.081534600000       9.032180000000       0.083759500000
        92    3  -1.200000        8.695950000000       9.294580000000       1.310010000000
        93    1   1.200000        2.924370000000       7.635680000000       0.096655300000
        94    2   2.400000        0.998098000000       7.471690000000       2.686730000000
        95    3  -1.200000        0.853272000000       7.604930000000       1.136040000000
        96    3  -1.200000        4.672660000000       7.549120000000       3.700330000000
        97    3  -1.200000        1.608560000000       8.748070000000       3.403360000000
        98    3  -1.200000        1.836260000000       6.281240000000       3.226360000000
        99    1   1.200000        5.151450000000       9.091470000000       2.291890000000
       100    1   1.200000        7.904670000000       7.601180000000       2.299840000000
       101    2   2.400000        6.089270000000       7.569390000000       4.379900000000
       102    3  -1.200000        6.016040000000       7.571270000000       5.891140000000
       103    3  -1.200000       -0.467184000000       7.457900000000       3.489120000000
       104    3  -1.200000        6.795650000000       8.836390000000       3.630750000000
       105    1   1.200000        4.946250000000      12.003400000000       2.189810000000
       106    3  -1.200000        6.849870000000       6.284840000000       3.608930000000
       107    1   1.200000        2.209740000000      10.391400000000       2.537930000000
       108    2   2.400000        3.986160000000      10.525000000000       0.192042000000
       109    3  -1.200000        4.029420000000      10.507900000000      -1.321860000000
       110    3  -1.200000       10.780700000000      10.719900000000       1.264850000000
       111    3  -1.200000        3.448490000000      11.838900000000       0.929307000000
       112    3  -1.200000        3.234370000000       9.279450000000       0.962863000000
       113    1   1.200000       10.075400000000       5.970310000000      -0.024076500000
       114    1   1.200000       17.567600000000      10.476500000000       4.754780000000
       115    2   2.400000       19.416200000000      10.342000000000       2.023930000000
       116    3  -1.200000       19.390900000000      10.356500000000       3.608530000000
       117    3  -1.200000       15.883200000000      10.471800000000       0.939593000000
       118    3  -1.200000       18.785200000000      11.707700000000       1.389290000000
       119    1   1.200000       10.389600000000       9.087570000000      -0.135876000000
       120    3  -1.200000       18.828000000000       9.081720000000       1.354040000000
       121    1   1.200000       13.036200000000       7.367680000000       0.088161000000
       122    2   2.400000       11.231800000000       7.521270000000       2.742790000000
       123    3  -1.200000       11.305000000000       7.415700000000       1.168840000000
       124    3  -1.200000       14.832200000000       7.376700000000       3.693180000000
       125    3  -1.200000       11.902800000000       8.802170000000       3.283630000000
       126    3  -1.200000       11.849300000000       6.178010000000       3.496320000000
       127    1   1.200000       15.423400000000       8.952410000000       2.347110000000
       128    1   1.200000       17.990500000000       7.259530000000       2.218900000000
       129    2   2.400000       16.237600000000       7.416940000000       4.452200000000
       130    3  -1.200000       16.262800000000       7.350440000000       5.981230000000
       131    3  -1.200000        9.773930000000       7.545170000000       3.418510000000
       132    3  -1.200000       16.965700000000       8.706400000000       3.759470000000
       133    1   1.200000       15.401800000000      11.750700000000       2.332210000000
       134    3  -1.200000       16.896000000000       6.100070000000       3.694960000000
       135    1   1.200000       12.431400000000      10.524200000000       2.285350000000
       136    2   2.400000       14.264100000000      10.404100000000       0.329186000000
       137    3  -1.200000       14.512800000000      10.390900000000      -1.254360000000
       138    3  -1.200000       20.900300000000      10.430000000000       1.312930000000
       139    3  -1.200000       13.689500000000      11.714600000000       0.850781000000
       140    3  -1.200000       13.661100000000       9.145340000000       1.066880000000
       141    1   1.200000       20.455300000000       5.876190000000       0.129770000000
       142    1   1.200000       27.549500000000      10.456500000000       4.770590000000
       143    2   2.400000       29.567500000000      10.578100000000       2.120090000000
       144    3  -1.200000       29.714300000000      10.506200000000       3.676190000000
       145    3  -1.200000       25.993300000000      10.309100000000       0.971311000000
       146    3  -1.200000       28.754400000000      11.799200000000       1.410290000000
       147    1   1.200000       20.385400000000       8.900200000000       0.093070900000
       148    3  -1.200000       28.897700000000       9.270620000000       1.533680000000
       149    1   1.200000       23.150500000000       7.563550000000       0.065394500000
       150    2   2.400000       21.308100000000       7.374210000000       2.748030000000
       151    3  -1.200000       21.359600000000       7.371630000000       1.134420000000
       152    3  -1.200000       25.038600000000       7.413930000000       3.721110000000
       153    3  -1.200000       21.812100000000       8.671370000000       3.352620000000
       154    3  -1.200000       22.094600000000       6.090960000000       3.391030000000
       155    1   1.200000       25.506100000000       8.986320000000       2.351510000000
       156    1   1.200000       28.400100000000       7.536760000000       2.188740000000
       157    2   2.400000       26.490600000000       7.387200000000       4.456970000000
       158    3  -1.200000       26.379000000000       7.386320000000       6.070040000000
       159    3  -1.200000       19.759300000000       7.227330000000       3.364160000000
       160    3  -1.200000       27.251900000000       8.721560000000       3.926930000000
       161    1   1.200000       25.503100000000      11.895500000000       2.408790000000
       162    3  -1.200000       27.164400000000       6.157160000000       3.734960000000
       163    1   1.200000       22.600200000000      10.341700000000       2.484360000000
       164    2   2.400000       24.574300000000      10.444600000000       0.373760000000
       165    3  -1.200000       24.631900000000      10.462800000000      -1.199060000000
       166    3  -1.200000       30.980800000000      10.608400000000       1.343340000000
       167    3  -1.200000       24.027800000000      11.759900000000       1.065280000000
       168    3  -1.200000       23.674200000000       9.218690000000       0.952329000000
       169    1   1.200000        0.043699100000      11.924600000000      -0.040698100000
       170    1   1.200000        7.352190000000      16.492500000000       4.497570000000
       171    2   2.400000        9.338460000000      16.529700000000       1.985580000000
       172    3  -1.200000        9.246850000000      16.470100000000       3.539190000000
       173    3  -1.200000        5.618100000000      16.671300000000       1.095950000000
       174    3  -1.200000        8.658180000000      17.822400000000       1.262980000000
       175    1   1.200000        0.159571000000      15.022600000000       0.107012000000
       176    3  -1.200000        8.571160000000      15.232700000000       1.324840000000
       177    1   1.200000        2.749290000000      13.600500000000      -0.076324300000
       178    2   2.400000        0.992296000000      13.442900000000       2.768450000000
       179    3  -1.200000        0.929223000000      13.504900000000       1.186540000000
       180    3  -1.200000        4.516180000000      13.425800000000       3.747520000000
       181    3  -1.200000        1.793490000000      14.663900000000       3.452690000000
       182    3  -1.200000        1.655850000000      12.195600000000       3.422380000000
       183    1   1.200000        5.052180000000      14.969200000000       2.413390000000
       184    1   1.200000        7.887930000000      13.515500000000       2.193760000000
       185    2   2.400000        6.078610000000      13.403500000000       4.339820000000
       186    3  -1.200000        5.970550000000      13.500100000000       5.866810000000
       187    3  -1.200000       -0.516930000000      13.443900000000       3.356940000000
       188    3  -1.200000        6.726330000000      14.677600000000       3.628960000000
       189    1   1.200000        5.016400000000      17.983600000000       2.429480000000
       190    3  -1.200000        6.761020000000      12.059000000000       3.540900000000
       191    1   1.200000        2.212720000000      16.355500000000       2.473100000000
       192    2   2.400000        4.088290000000      16.527000000000       0.302167000000
       193    3  -1.200000        4.198430000000      16.499100000000      -1.231690000000
       194    3  -1.200000       10.794300000000      16.419600000000       1.447770000000
       195    3  -1.200000        3.315220000000      17.706300000000       1.030080000000
       196    3  -1.200000        3.521980000000      15.222300000000       0.933173000000
       197    1   1.200000       10.115000000000      12.024800000000      -0.158437000000
       198    1   1.200000       17.544600000000      16.418700000000       4.813140000000
       199    2   2.400000       19.537000000000      16.254600000000       1.925990000000
       200    3  -1.200000       19.634300000000      16.435300000000       3.644120000000
       201    3  -1.200000       15.814500000000      16.450800000000       1.128390000000
       202    3  -1.200000       18.840300000000      17.500500000000       1.295770000000
       203    1   1.200000       10.184200000000      14.870400000000      -0.090954100000
       204    3  -1.200000       18.869800000000      14.882300000000       1.321850000000
       205    1   1.200000       13.041800000000      13.488300000000      -0.031179200000
       206    2   2.400000       11.208200000000      13.517600000000       2.673770000000
       207    3  -1.200000       11.164200000000      13.509000000000       1.118520000000
       208    3  -1.200000       14.839600000000      13.512800000000       3.594140000000
       209    3  -1.200000       11.832100000000      14.719700000000       3.396190000000
       210    3  -1.200000       12.037000000000      12.269500000000       3.269910000000
       211    1   1.200000       15.355900000000      14.704400000000       2.190760000000
       212    1   1.200000       18.212600000000      13.236300000000       2.425070000000
       213    2   2.400000       16.306100000000      13.476000000000       4.350600000000
       214    3  -1.200000       16.223800000000      13.464300000000       5.844360000000
       215    3  -1.200000        9.633500000000      13.486200000000       3.259660000000
       216    3  -1.200000       17.083800000000      14.676200000000       3.626860000000
       217    1   1.200000       15.344000000000      17.961500000000       2.359680000000
       218    3  -1.200000       16.867800000000      12.131000000000       3.659720000000
       219    1   1.200000       12.628300000000      16.423900000000       2.474330000000
       220    2   2.400000       14.411900000000      16.439300000000       0.363729000000
       221    3  -1.200000       14.443700000000      16.371700000000      -1.188430000000
       222    3  -1.200000       21.017300000000      16.215300000000       1.325100000000
       223    3  -1.200000       13.692500000000      17.706500000000       0.917505000000
       224    3  -1.200000       13.682500000000      15.214900000000       0.952854000000
       225    1   1.200000       20.741000000000      11.860500000000      -0.007118200000
       226    1   1.200000       27.672200000000      16.376600000000       4.722550000000
       227    2   2.400000       29.579400000000      16.478800000000       2.178290000000
       228    3  -1.200000       29.669700000000      16.399000000000       3.772370000000
       229    3  -1.200000       26.097900000000      16.443300000000       1.186040000000
       230    3  -1.200000       28.936000000000      17.673800000000       1.436240000000
       231    1   1.200000       20.442400000000      14.748400000000      -0.103144000000
       232    3  -1.200000       28.784300000000      15.199300000000       1.556110000000
       233    1   1.200000       23.305900000000      13.295500000000       0.073835600000
       234    2   2.400000       21.509300000000      13.326600000000       2.750710000000
       235    3  -1.200000       21.491300000000      13.353200000000       1.230140000000
       236    3  -1.200000       24.972500000000      13.437500000000       3.709010000000
       237    3  -1.200000       22.115400000000      14.690200000000       3.370880000000
       238    3  -1.200000       22.079100000000      12.039700000000       3.507050000000
       239    1   1.200000       25.542600000000      14.945400000000       2.401380000000
       240    1   1.200000       28.353900000000      13.552700000000       2.312150000000
       241    2   2.400000       26.463500000000      13.392500000000       4.440290000000
       242    3  -1.200000       26.286600000000      13.441300000000       6.012370000000
       243    3  -1.200000       20.009900000000      13.433800000000       3.439080000000
       244    3  -1.200000       27.203200000000      14.662400000000       3.846150000000
       245    1   1.200000       25.617300000000      17.814600000000       2.423170000000
       246    3  -1.200000       27.076300000000      12.048800000000       3.815210000000
       247    1   1.200000       22.750600000000      16.361600000000       2.368140000000
       248    2   2.400000       24.709200000000      16.380400000000       0.331955000000
       249    3  -1.200000       24.781200000000      16.427000000000      -1.159340000000
       250    3  -1.200000       31.076800000000      16.508200000000       1.470840000000
       251    3  -1.200000       23.943900000000      17.671400000000       1.073190000000
       252    3  -1.200000       23.989500000000      15.139400000000       0.961550000000
       253    1   1.200000       -0.032332900000      -0.039028500000       4.791490000000
       254    1   1.200000        7.384640000000       4.687850000000       9.520190000000
       255    2   2.400000        9.156730000000       4.642300000000       6.832190000000
       256    3  -1.200000        9.345940000000       4.618550000000       8.374610000000
       257    3  -1.200000        5.713460000000       4.517300000000       5.736920000000
       258    3  -1.200000        8.470520000000       5.844160000000       6.101540000000
       259    1   1.200000        0.026623400000       3.051700000000       4.772800000000
       260    3  -1.200000        8.513450000000       3.275660000000       6.167650000000
       261    1   1.200000        2.842190000000       1.547580000000       4.979600000000
       262    2   2.400000        0.983056000000       1.504740000000       7.438620000000
       263    3  -1.200000        0.777508000000       1.542610000000       5.854670000000
       264    3  -1.200000        4.601920000000       1.514060000000       8.554360000000
       265    3  -1.200000        1.620730000000       2.813310000000       8.028030000000
       266    3  -1.200000        1.731940000000       0.300685000000       8.162210000000
       267    1   1.200000        5.186880000000       3.024850000000       7.156700000000
       268    1   1.200000        8.032620000000       1.507770000000       7.026890000000
       269    2   2.400000        6.141480000000       1.576870000000       9.289240000000
       270    3  -1.200000        6.128250000000       1.621630000000      10.756400000000
       271    3  -1.200000       -0.458867000000       1.386030000000       8.234750000000
       272    3  -1.200000        6.825690000000       2.800210000000       8.448430000000
       273    1   1.200000        5.105800000000       5.980790000000       7.060680000000
       274    3  -1.200000        6.750790000000       0.253073000000       8.564560000000
       275    1   1.200000        2.280510000000       4.545740000000       7.098540000000
       276    2   2.400000        4.146940000000       4.508890000000       5.079240000000
       277    3  -1.200000        4.354210000000       4.544320000000       3.600360000000
       278    3  -1.200000       10.670700000000       4.498790000000       6.125380000000
       279    3  -1.200000        3.492700000000       5.765270000000       5.811660000000
       280    3  -1.200000        3.644090000000       3.181540000000       5.914210000000
       281    1   1.200000       10.114700000000       0.087868200000       4.795710000000
       282    1   1.200000       17.499900000000       4.535380000000       9.502240000000
       283    2   2.400000       19.193800000000       4.477650000000       6.816370000000
       284    3  -1.200000       19.355400000000       4.418080000000       8.414780000000
       285    3  -1.200000       15.678600000000       4.497470000000       5.759670000000
       286    3  -1.200000       18.646100000000       5.773800000000       6.196040000000
       287    1   1.200000       10.151500000000       2.979130000000       4.752770000000
       288    3  -1.200000       18.576600000000       3.198250000000       6.229300000000
       289    1   1.200000       12.960300000000       1.419770000000       4.708600000000
       290    2   2.400000       11.226900000000       1.574160000000       7.459100000000
       291    3  -1.200000       11.052800000000       1.511140000000       5.919410000000
       292    3  -1.200000       14.657500000000       1.555570000000       8.407060000000
       293    3  -1.200000       11.953600000000       2.742370000000       8.226750000000
       294    3  -1.200000       11.819200000000       0.243660000000       8.256690000000
       295    1   1.200000       15.159200000000       3.027170000000       7.140240000000
       296    1   1.200000       18.187000000000       1.449350000000       7.150940000000
       297    2   2.400000       16.220900000000       1.499700000000       9.107180000000
       298    3  -1.200000       16.115300000000       1.361720000000      10.672200000000
       299    3  -1.200000        9.757290000000       1.575910000000       8.131900000000
       300    3  -1.200000       16.902200000000       2.822670000000       8.454330000000
       301    1   1.200000       15.365500000000       6.033860000000       7.201930000000
       302    3  -1.200000       16.874700000000       0.273145000000       8.434380000000
       303    1   1.200000       12.418400000000       4.509080000000       7.092230000000
       304    2   2.400000       14.137100000000       4.574750000000       5.081720000000
       305    3  -1.200000       14.284700000000       4.501950000000       3.574670000000
       306    3  -1.200000       20.818300000000       4.403870000000       6.247420000000
       307    3  -1.200000       13.590300000000       5.850080000000       5.804300000000
       308    3  -1.200000       13.567600000000       3.187990000000       5.851620000000
       309    1   1.200000       20.353500000000      -0.109192000000       4.809830000000
       310    1   1.200000       27.727900000000       4.592070000000       9.435200000000
       311    2   2.400000       29.659500000000       4.499620000000       6.861460000000
       312    3  -1.200000       29.789200000000       4.375410000000       8.453610000000
       313    3  -1.200000       25.936300000000       4.470290000000       5.769260000000
       314    3  -1.200000       28.849300000000       5.802340000000       6.139700000000
       315    1   1.200000       20.457800000000       2.918080000000       4.734030000000
       316    3  -1.200000       29.086400000000       3.273780000000       6.072520000000
       317    1   1.200000       23.211500000000       1.367910000000       4.838160000000
       318    2   2.400000       21.379300000000       1.491690000000       7.430730000000
       319    3  -1.200000       21.358800000000       1.375220000000       5.865730000000
       320    3  -1.200000       25.112800000000       1.367140000000       8.542130000000
       321    3  -1.200000       22.130400000000       2.679650000000       8.072680000000
       322    3  -1.200000       22.177300000000       0.105711000000       8.074400000000
       323    1   1.200000       25.504600000000       2.923070000000       7.160300000000
       324    1   1.200000       28.305200000000       1.535570000000       6.973740000000
       325    2   2.400000       26.571100000000       1.464140000000       9.176650000000