ITEM: TIMESTEP
0
ITEM: NUMBER OF ATOMS
756
ITEM: BOX BOUNDS pp pp pp
0	30.5955
0	17.9376
0	14.247
ITEM: ATOMS id type element xu yu zu q Q_mono_mono[1] Q_mono_mono[2] Q_mono_mono[3] Q_mono_mono[4] Q_mono_mono[5] Q_mono_mono[6] Q_mono_mono[7] Q_mono_mono[8] Q_mono_mono[9] Q_mono_mono[10] Q_mono_mono[11] Q_multi_multi[1] Q_multi_multi[2] Q_multi_multi[3] Q_multi_multi[4] Q_multi_multi[5] Q_multi_multi[6] Q_multi_multi[7] Q_multi_multi[8] Q_multi_multi[9] Q_multi_multi[10] Q_multi_multi[11]
1 1 Mg 0.0441822 0.0274347 0.0938741 1.2 0.223257 0.00084292 0.0258346 0.00144043 0.0132645 0.00311002 0.061003 0.00386863 0.0913679 0.00410635 0.0609859 1 0.00693389 0.00588344 0.00284972 0.0228377 0.00308883 0.0328671 0.0055247 0.104374 0.00829638 0.0561072
2 1 Mg 7.3871 4.48452 4.69897 1.2 0.227135 0.00062974 0.0265641 0.00322208 0.011752 0.00490503 0.0614839 0.0086956 0.0937372 0.00588879 0.0622621 1 0.00410486 0.00506785 0.00499358 0.0177915 0.00716695 0.0273495 0.011541 0.102774 0.0127544 0.0503462
3 2 Si 9.18248 4.67635 2.16713 2.4 0.148594 0.0113177 0.0188977 0.0103094 0.0617191 0.0205556 0.0639785 0.0171613 0.0452138 0.0161411 0.0493663 1 0.00530026 0.00642386 0.00314366 0.0196697 0.00752402 0.0318486 0.0137529 0.0965922 0.0141433 0.0524275
4 3 O 9.2418 4.59889 3.67887 -1.2 0.526617 0.00522897 0.00862463 0.00614383 0.0245691 0.007247 0.0320834 0.0104667 0.103255 0.010432 0.0404475 1 0.00570483 0.00632376 0.00561605 0.02177 0.00773551 0.0254233 0.00921437 0.0980277 0.011314 0.0526798
5 3 O 5.64069 4.72294 0.94916 -1.2 0.521653 0.00702193 0.00617233 0.00545869 0.021344 0.00448008 0.0394478 0.0212504 0.106793 0.0263595 0.036159 1 0.00624507 0.00803242 0.00443044 0.0194552 0.00642687 0.0295204 0.0119823 0.0961223 0.0144119 0.0595607
6 3 O 8.55873 5.88772 1.32398 -1.2 0.526786 0.00744214 0.00868337 0.0100299 0.0192407 0.00785657 0.0397544 0.0236881 0.105257 0.0295852 0.0367164 1 0.00448507 0.00725004 0.00762856 0.0179939 0.00812677 0.0323009 0.0138533 0.0890142 0.016399 0.0517236
7 1 Mg 0.0662114 3.09948 0.143595 1.2 0.226075 0.000436437 0.026123 0.00138644 0.0123044 0.00165653 0.0624828 0.00278935 0.0928266 0.00337628 0.061458 1 0.00430594 0.0082625 0.0024773 0.021435 0.00647793 0.0321894 0.00423618 0.102896 0.00836407 0.0564857
8 3 O 8.474 3.32488 1.48241 -1.2 0.523135 0.0104052 0.00773786 0.00720859 0.0218127 0.00830182 0.038829 0.0133266 0.108269 0.0239338 0.0344322 1 0.00760754 0.00603822 0.00613551 0.0214084 0.0070973 0.0313963 0.0124892 0.0962647 0.0155119 0.0533306
9 1 Mg 2.74823 1.67695 0.170996 1.2 0.228838 0.00253278 0.0261181 0.00488858 0.0116541 0.00387579 0.0628485 0.00986047 0.0928168 0.00888771 0.0612106 1 0.00471489 0.00675583 0.00440122 0.0200775 0.00634007 0.0285277 0.0137699 0.103393 0.0168268 0.051787
10 2 Si 0.993408 1.51026 2.8161 2.4 0.151262 0.00717689 0.0198652 0.00944055 0.062292 0.0131473 0.0662788 0.0148366 0.0466725 0.0151302 0.0514335 1 0.00226602 0.00543927 0.00780162 0.0211442 0.00850042 0.0372559 0.0127327 0.0964643 0.0144195 0.0535636
11 3 O 0.874495 1.62648 1.32173 -1.2 0.520718 0.0121384 0.0122476 0.00972808 0.0214475 0.0109524 0.0344941 0.0120595 0.11133 0.0124035 0.0384064 1 0.0106992 0.00933393 0.00703648 0.0214043 0.0095587 0.0253932 0.0114382 0.0990604 0.0114005 0.0559893
12 3 O 4.56389 1.47941 3.83847 -1.2 0.525157 0.00359291 0.00668909 0.00793128 0.0169755 0.00656132 0.0359198 0.0230266 0.108296 0.0239192 0.0418 1 0.00110626 0.00719926 0.00492356 0.0209294 0.00679524 0.0290821 0.0133861 0.0940293 0.014155 0.0601956
13 3 O 1.679 2.76694 3.5474 -1.2 0.521208 0.00565397 0.00962083 0.00893423 0.0160569 0.00992793 0.0399855 0.0166353 0.111338 0.0184909 0.0383773 1 0.00642356 0.00495514 0.00955129 0.019697 0.00724723 0.0371181 0.0135928 0.0936998 0.0171296 0.0531816
14 3 O 1.59971 0.253057 3.38486 -1.2 0.527281 0.0073537 0.00945433 0.00610881 0.0145093 0.00649422 0.0399084 0.0197208 0.108885 0.0274601 0.0383273 1 0.00450973 0.00613393 0.00438845 0.0174551 0.00691455 0.0370374 0.0140556 0.0915989 0.0189959 0.05217
15 1 Mg 5.19814 3.0854 2.27069 1.2 0.228711 0.000662565 0.0258291 0.0011684 0.0134848 0.00320834 0.0631898 0.00385568 0.0930961 0.00480139 0.0619124 1 0.00565431 0.005978 0.00301344 0.0231598 0.00424798 0.0318046 0.00604408 0.104811 0.0120016 0.0546339
16 1 Mg 7.82297 1.53858 2.14441 1.2 0.226656 0.00318426 0.0251431 0.00523326 0.0103645 0.00384423 0.0613055 0.00766347 0.0907424 0.00827999 0.0608467 1 0.00643512 0.00535304 0.00741111 0.0224451 0.00515055 0.0261465 0.0107054 0.10465 0.0127816 0.0542552
17 2 Si 6.14308 1.51692 4.4676 2.4 0.14824 0.0102846 0.0194078 0.0103165 0.0621428 0.021208 0.0636762 0.0189774 0.0453944 0.0188648 0.050127 1 0.00278912 0.00661333 0.006296 0.0231461 0.00912549 0.0330306 0.0113482 0.093285 0.0119594 0.0567559
18 3 O 6.10246 1.47632 6.10413 -1.2 0.528812 0.00638647 0.00668523 0.00491438 0.0251661 0.00521526 0.0298901 0.00664479 0.102912 0.0119185 0.0375586 1 0.00218809 0.00803977 0.00310982 0.0222641 0.00541116 0.0256357 0.0111318 0.0964384 0.00936549 0.0519396
19 3 O -0.536329 1.53011 3.52627 -1.2 0.527478 0.0129628 0.0131568 0.00911259 0.0172677 0.00686216 0.0405422 0.0216384 0.106534 0.0259378 0.0413186 1 0.00928634 0.00783484 0.00529835 0.0206284 0.00803413 0.0317025 0.0125046 0.0991855 0.0132824 0.0575488
20 3 O 6.72877 2.78804 3.74661 -1.2 0.524667 0.00395231 0.00529839 0.00862292 0.0155851 0.012285 0.0359215 0.0161097 0.106982 0.0217424 0.0381935 1 0.00525964 0.00616375 0.00671979 0.0178163 0.00885242 0.0303641 0.0105617 0.0950563 0.0150801 0.0527202
21 1 Mg 4.96618 6.15836 2.3593 1.2 0.228761 0.00143291 0.0262197 0.000894526 0.0128159 0.00263892 0.0618478 0.00459776 0.0946467 0.0052098 0.0621285 1 0.00557579 0.00731552 0.00460801 0.0236119 0.00110812 0.0339633 0.00685383 0.101859 0.00890025 0.0530658
22 3 O 6.67966 0.198351 3.74767 -1.2 0.528126 0.00481659 0.00382251 0.00600625 0.0207103 0.00803809 0.0332099 0.0164739 0.106281 0.0196808 0.0375728 1 0.00434849 0.00532782 0.00427675 0.0222319 0.00670821 0.0320062 0.0114899 0.0899623 0.0143836 0.0555633
23 1 Mg 2.32197 4.50962 2.30547 1.2 0.227965 0.00188602 0.026188 0.00362449 0.011944 0.00433865 0.0622459 0.00917268 0.0937163 0.00765908 0.0613586 1 0.00586745 0.00853652 0.0076283 0.019369 0.00592557 0.0277539 0.0142259 0.105344 0.0156082 0.0521318
24 2 Si 4.12453 4.54089 0.291157 2.4 0.149976 0.00141363 0.017214 0.00821435 0.0614579 0.0110967 0.0644027 0.0145922 0.0462574 0.0154153 0.0514613 1 0.00816731 0.00842946 0.00525945 0.0205661 0.0104774 0.0354058 0.0124716 0.0953173 0.0148446 0.053056
25 3 O 4.14867 4.57867 -1.24754 -1.2 0.52226 0.00676068 0.00741498 0.007073 0.028203 0.00747792 0.0332731 0.0128835 0.107626 0.0130552 0.0334956 1 0.00679545 0.00994292 0.00560265 0.0230346 0.0040292 0.0252732 0.0124684 0.0979851 0.0129258 0.0546982
26 3 O 10.7332 4.50042 1.42037 -1.2 0.526741 0.00560826 0.00974643 0.00328851 0.0218053 0.00396216 0.0394973 0.0255113 0.109927 0.0245218 0.0385024 1 0.00496492 0.00835488 0.00440837 0.0205642 0.00558911 0.0296837 0.0133339 0.09511 0.0149901 0.0555918
27 3 O 3.42386 5.89331 1.00206 -1.2 0.520348 0.00836766 0.00776739 0.00853865 0.020646 0.00827728 0.0403767 0.0176834 0.110495 0.0247725 0.0342997 1 0.00795308 0.00703648 0.00592036 0.0179452 0.00825819 0.0357023 0.0115955 0.0912292 0.0196609 0.052495
28 3 O 3.51006 3.27644 1.08623 -1.2 0.522022 0.00740751 0.00501324 0.00528086 0.0214388 0.00803109 0.0398783 0.0133029 0.109933 0.0207926 0.0336124 1 0.0073358 0.00678654 0.00512812 0.0195993 0.00708737 0.0369206 0.0148246 0.0905732 0.0187692 0.0533918
29 1 Mg 10.2156 0.00920186 -0.148051 1.2 0.227272 0.00225812 0.0234906 0.00418125 0.0132722 0.00313886 0.0607682 0.00513242 0.0911261 0.00426654 0.0618343 1 0.00404985 0.00612737 0.00540666 0.0227408 0.00434443 0.0302728 0.00577591 0.104783 0.00846298 0.0553785
30 1 Mg 17.4447 4.45303 4.61223 1.2 0.227196 0.00193718 0.0269646 0.00438107 0.0115661 0.00392296 0.060388 0.00695975 0.0935538 0.0057141 0.0612118 1 0.00809421 0.00975361 0.00645905 0.0195558 0.00787701 0.0270791 0.0136019 0.102237 0.0158725 0.0505798
31 2 Si 19.3923 4.24903 2.04217 2.4 0.140019 0.0129879 0.0214868 0.0114437 0.0613294 0.0177877 0.0611795 0.0155494 0.0442268 0.0149653 0.0469811 1 0.00435931 0.00645556 0.00330633 0.0204378 0.00841386 0.035082 0.0114228 0.0987376 0.0151547 0.0534715
32 3 O 19.4764 4.39517 3.63366 -1.2 0.524719 0.00622989 0.00806827 0.00664364 0.0277878 0.0058097 0.0330637 0.010126 0.105401 0.0167174 0.0334549 1 0.0036742 0.0104531 0.00596084 0.0214124 0.00500752 0.0265965 0.0113871 0.0979974 0.0150787 0.0537948
33 3 O 15.8016 4.35176 1.12535 -1.2 0.5226 0.00484524 0.00634354 0.00583969 0.0201637 0.00502868 0.0376424 0.0271191 0.109964 0.0230126 0.0357444 1 0.00358589 0.0102546 0.00398569 0.0197928 0.00653691 0.0304236 0.0146051 0.0966269 0.0141268 0.0569709
34 3 O 18.7591 5.60488 1.39005 -1.2 0.521881 0.00894059 0.00575182 0.00983567 0.0216699 0.0098356 0.0382617 0.0171494 0.110465 0.0182905 0.0332347 1 0.00850567 0.0101246 0.00605582 0.0188014 0.008392 0.0338059 0.0122166 0.0929895 0.0153377 0.0537821
35 1 Mg 10.0366 3.00835 0.208302 1.2 0.226267 0.0027563 0.0245478 0.00260078 0.0116973 0.00280957 0.0616206 0.00435002 0.0910978 0.00453479 0.060421 1 0.00676253 0.00518489 0.00265729 0.0249625 0.00507362 0.0304901 0.00577427 0.102176 0.00826719 0.0545286
36 3 O 18.8472 2.98267 1.32196 -1.2 0.521457 0.00513386 0.00621001 0.00741454 0.0215034 0.00938273 0.0386998 0.0196855 0.107483 0.0210856 0.0335065 1 0.00398518 0.00712959 0.00510774 0.0187086 0.00912867 0.0337774 0.0135275 0.0903175 0.0153557 0.0523484
37 1 Mg 12.938 1.37159 0.0253617 1.2 0.223546 0.00169998 0.0234052 0.00516119 0.0101895 0.00495644 0.0613992 0.0108306 0.0899468 0.00814558 0.0601025 1 0.00435432 0.00905215 0.00345599 0.0224308 0.00619246 0.0273577 0.0121722 0.0997617 0.0128506 0.0514261
38 2 Si 11.2885 1.58077 2.62985 2.4 0.148604 0.00567963 0.0186201 0.0106034 0.0598892 0.0154663 0.0651365 0.0177337 0.04348 0.0172206 0.0502325 1 0.00700612 0.00559511 0.00770203 0.021445 0.0102431 0.0343576 0.0132565 0.0938711 0.0144684 0.0536925
39 3 O 11.0888 1.5677 1.08534 -1.2 0.521968 0.00835345 0.0096496 0.00525978 0.0245341 0.00733774 0.0358682 0.0140543 0.106147 0.0174336 0.0373685 1 0.00478988 0.00969946 0.00916084 0.0220614 0.00596513 0.023772 0.0101166 0.0965781 0.0112934 0.0562095
40 3 O 14.6986 1.48665 3.75233 -1.2 0.524714 0.0101864 0.00949569 0.00922515 0.0136341 0.00662784 0.042534 0.0180904 0.108278 0.0229977 0.0386938 1 0.00960776 0.0108952 0.0071382 0.0144021 0.00783375 0.0300914 0.0118287 0.0955777 0.0128953 0.0536275
41 3 O 11.9308 2.73709 3.36757 -1.2 0.52618 0.00726858 0.00889955 0.00449671 0.0186787 0.00598254 0.0365534 0.0147583 0.104933 0.0217554 0.0382807 1 0.00506604 0.00749165 0.00433346 0.0207033 0.00779126 0.0310213 0.0129614 0.0965229 0.0150106 0.051675
42 3 O 11.9211 0.224582 3.28945 -1.2 0.522839 0.0056957 0.00822514 0.00629795 0.0204884 0.00742768 0.0397725 0.0201286 0.107439 0.0251138 0.0370687 1 0.00502503 0.00913957 0.00520847 0.0192476 0.00872304 0.0341926 0.0124941 0.0928226 0.017142 0.0521612
43 1 Mg 15.1504 2.922 2.44497 1.2 0.227498 0.00177477 0.0262522 0.00105272 0.0132774 0.00407741 0.0613717 0.00530657 0.0937859 0.00592467 0.0615984 1 0.00655226 0.0093997 0.00471938 0.0215267 0.0065283 0.0331827 0.00464983 0.10319 0.00444159 0.0534055
44 1 Mg 18.1082 1.23636 2.35455 1.2 0.229074 0.000775252 0.0265029 0.00485563 0.0117537 0.00345472 0.060931 0.00790876 0.0942793 0.0036404 0.0608702 1 0.00614967 0.00828332 0.0063039 0.0185999 0.00702829 0.0283687 0.0158679 0.102491 0.0166033 0.0464198
45 2 Si 16.1778 1.57345 4.45936 2.4 0.150757 0.00791399 0.0174035 0.00809852 0.0605271 0.0197241 0.0654191 0.0166941 0.0442051 0.0174324 0.0497029 1 0.0109115 0.00825512 0.00453604 0.0172734 0.00758511 0.0360294 0.013183 0.0972281 0.0157021 0.0489177
46 3 O 15.9905 1.52688 6.00501 -1.2 0.52979 0.00534533 0.00603 0.00676745 0.0220654 0.0075233 0.0325996 0.0142953 0.106618 0.00974315 0.0357985 1 0.0061569 0.0086217 0.00824925 0.0165171 0.00955563 0.0287203 0.00863181 0.0937897 0.00945001 0.0487351
47 3 O 9.76524 1.57042 3.29072 -1.2 0.523296 0.00390176 0.00677409 0.00696291 0.0160036 0.00588696 0.0386369 0.0233581 0.105223 0.0223502 0.0407711 1 0.00440393 0.0052142 0.00727941 0.0206514 0.00667542 0.0297333 0.013009 0.0969013 0.0138012 0.0594872
48 3 O 16.9196 2.82325 3.77472 -1.2 0.525206 0.0164839 0.00574805 0.0103912 0.0178352 0.00959691 0.0399211 0.0151342 0.108114 0.0305384 0.0335618 1 0.0112324 0.0101621 0.00796103 0.0146148 0.00864732 0.0333189 0.0128201 0.0914381 0.0205475 0.0521828
49 1 Mg 15.2988 5.92763 2.35863 1.2 0.229536 0.000873817 0.0270203 0.00116671 0.0133199 0.00283825 0.0617887 0.00386051 0.0934442 0.00440346 0.061281 1 0.000925006 0.012745 0.00438875 0.0206644 0.00468739 0.0322599 0.0034765 0.100258 0.00539598 0.0532974
50 3 O 17.006 0.29994 3.75259 -1.2 0.52154 0.010345 0.00717527 0.00778958 0.0189397 0.00845499 0.0401511 0.0147809 0.108954 0.0250518 0.0321349 1 0.0082557 0.00822942 0.00471948 0.0173996 0.00983704 0.0357126 0.0144625 0.09055 0.019227 0.0481324
51 1 Mg 12.4841 4.56283 2.52917 1.2 0.224469 0.00119954 0.0237543 0.00475883 0.0102263 0.00502292 0.0615318 0.00990241 0.0910756 0.00506074 0.0602078 1 0.0053954 0.00733167 0.00263444 0.0170656 0.0063848 0.0298355 0.0111161 0.102445 0.0151325 0.0480844
52 2 Si 14.2982 4.39698 0.296624 2.4 0.153553 0.00594898 0.0189604 0.0099814 0.0608628 0.0149485 0.0676858 0.0144887 0.0449444 0.0152524 0.0518476 1 0.00243015 0.00901127 0.00690081 0.0190777 0.00888079 0.0356844 0.0119692 0.0974439 0.0136626 0.0529661
53 3 O 14.4817 4.38762 -1.26978 -1.2 0.523261 0.00388667 0.00741951 0.00437696 0.0239101 0.0059476 0.0359612 0.00579234 0.109171 0.0121014 0.036206 1 0.00248257 0.0111687 0.00776543 0.0176002 0.00673623 0.027763 0.0103643 0.0973213 0.0112171 0.0487769
54 3 O 20.8422 4.35965 1.46375 -1.2 0.519197 0.00219324 0.0100012 0.00536186 0.0222759 0.00342775 0.0394876 0.0250136 0.108562 0.0219573 0.0346835 1 0.00288658 0.00841993 0.00538903 0.0237795 0.00675909 0.0288416 0.0140143 0.0965194 0.0156216 0.0637027
55 3 O 13.8177 5.77838 0.950622 -1.2 0.527656 0.00377826 0.0075322 0.00614512 0.0224964 0.00788366 0.0385968 0.0132698 0.109599 0.0173583 0.037992 1 0.00444198 0.0103266 0.00624645 0.017957 0.00819424 0.0361438 0.0117914 0.0920476 0.0147913 0.0498647
56 3 O 13.5534 3.21103 1.07076 -1.2 0.522915 0.00487319 0.00986098 0.0061065 0.0206884 0.00718734 0.0398204 0.0199253 0.108568 0.0214169 0.0375924 1 0.00152174 0.00988843 0.00672932 0.0176346 0.00852623 0.0312272 0.0127639 0.0933866 0.0170795 0.0519762
57 1 Mg 20.5949 -0.0203262 -0.00156408 1.2 0.224401 0.0018638 0.0238371 0.00180881 0.0116569 0.00361529 0.0602785 0.00533063 0.0909641 0.00476148 0.0608399 1 0.0079292 0.00629826 0.00656872 0.02518 0.00423501 0.032945 0.00457424 0.100209 0.0127503 0.0536317
58 1 Mg 27.6489 4.49604 4.79608 1.2 0.227341 0.00150149 0.0266773 0.00438191 0.0117149 0.00352162 0.061854 0.00809241 0.0930913 0.00678072 0.0603311 1 0.00435171 0.0113182 0.0060182 0.0186694 0.00653793 0.0289784 0.0155348 0.106099 0.0157223 0.0538744
59 2 Si 29.5445 4.53645 2.10924 2.4 0.149007 0.00700275 0.0216686 0.0087207 0.0614386 0.0158149 0.0653511 0.0150655 0.0471298 0.015192 0.0507063 1 0.00363029 0.00828783 0.00496401 0.0211844 0.00854128 0.033615 0.0117304 0.101141 0.0128485 0.053494
60 3 O 29.7497 4.68345 3.59773 -1.2 0.520049 0.00588212 0.0112638 0.00758034 0.0220345 0.00775519 0.0363247 0.0157235 0.110552 0.0149709 0.0352103 1 0.00440259 0.00929208 0.00607436 0.0206688 0.00611613 0.027477 0.0116776 0.102993 0.0117519 0.0534385
61 3 O 26.104 4.54482 1.00472 -1.2 0.52128 0.00533973 0.00763106 0.00660395 0.0198133 0.00500634 0.0389945 0.0207956 0.104395 0.0257226 0.0387786 1 0.00260252 0.00834174 0.00311481 0.0229533 0.00647536 0.0294068 0.0118001 0.0946699 0.0152766 0.0611528
62 3 O 28.8763 5.77803 1.32097 -1.2 0.52248 0.00322112 0.00854181 0.00828603 0.0197809 0.0093021 0.0379049 0.0101701 0.106673 0.0203558 0.0365767 1 0.00322147 0.0096446 0.00561759 0.0188636 0.00970466 0.0318416 0.0113693 0.0964278 0.0144144 0.0529917
63 1 Mg 20.3251 2.88609 -0.0330436 1.2 0.226692 0.000823359 0.0253705 0.0015867 0.0133952 0.00321667 0.0621578 0.00327941 0.0932886 0.00296265 0.0617444 1 0.00157097 0.00912324 0.0028975 0.0249871 0.00523839 0.0316135 0.00660749 0.105643 0.0102633 0.0537717
64 3 O 28.9408 3.16899 1.43922 -1.2 0.518739 0.00457333 0.00863349 0.00807856 0.0159325 0.00788968 0.0415072 0.0191446 0.110239 0.0275683 0.0385494 1 0.00339705 0.00933792 0.00548303 0.0158216 0.00609288 0.0334062 0.0124018 0.0962212 0.0160178 0.0556763
65 1 Mg 23.1565 1.4177 0.107364 1.2 0.223826 0.00157776 0.0239721 0.00498238 0.0100231 0.00379526 0.0612079 0.00769128 0.0917912 0.0050633 0.0621271 1 0.00824124 0.00796262 0.0042798 0.0226451 0.00525871 0.0274986 0.0112601 0.103272 0.0131999 0.0509989
66 2 Si 21.4065 1.28314 2.63466 2.4 0.14524 0.00517002 0.0191481 0.0101593 0.0605802 0.015237 0.0625589 0.0152452 0.0451059 0.0148805 0.0486675 1 0.00403394 0.00580257 0.00661602 0.0222063 0.00988853 0.0367308 0.0104532 0.095372 0.0151539 0.0529069
67 3 O 21.4207 1.35924 1.03789 -1.2 0.520923 0.0108425 0.00742604 0.00680044 0.0262027 0.00645954 0.030543 0.0107757 0.104237 0.0200229 0.0351441 1 0.00663484 0.00962043 0.00426102 0.0245332 0.00479431 0.0240863 0.0118237 0.0972286 0.0170773 0.0529264
68 3 O 25.0059 1.45302 3.72758 -1.2 0.524614 0.00800809 0.0113303 0.00804613 0.0190419 0.00689377 0.0393889 0.0256784 0.102027 0.0245027 0.0410372 1 0.00500776 0.0061391 0.00715542 0.0232408 0.00685475 0.0316993 0.0143348 0.0950799 0.0132411 0.0622028
69 3 O 22.1322 2.49415 3.324 -1.2 0.522675 0.00691129 0.00850878 0.00680093 0.0231408 0.00742037 0.0359887 0.0152168 0.104936 0.0191536 0.0342388 1 0.0058115 0.00628864 0.00556926 0.0238593 0.00666501 0.035025 0.0113362 0.0962555 0.0159703 0.0536182
70 3 O 21.9426 0.0481037 3.38463 -1.2 0.52221 0.00606944 0.00949123 0.0106944 0.0145146 0.0106056 0.0421244 0.0175911 0.104703 0.0197039 0.0341707 1 0.00798031 0.00566434 0.00585025 0.0154791 0.00960146 0.0350239 0.00914026 0.0914886 0.0104645 0.0497197
71 1 Mg 25.5903 2.9712 2.33916 1.2 0.228231 0.00141948 0.0264372 0.000749147 0.0135852 0.00295168 0.0628017 0.00449386 0.0944615 0.00478056 0.0634074 1 0.00593281 0.00817673 0.00482406 0.0241386 0.00368577 0.0331475 0.00583769 0.103044 0.00635011 0.0549531
72 1 Mg 28.2973 1.40666 2.41584 1.2 0.226468 0.00133966 0.0265142 0.00452443 0.0114044 0.00328679 0.0615983 0.00983457 0.0930256 0.00568739 0.0615845 1 0.00767879 0.00773887 0.00651541 0.0200283 0.00510143 0.0280289 0.012416 0.107178 0.0132096 0.0526822
73 2 Si 26.4096 1.45287 4.53643 2.4 0.157589 0.00708362 0.018922 0.00666325 0.0632422 0.0137779 0.0686333 0.0121707 0.0470369 0.0123466 0.0529749 1 0.00295022 0.00870525 0.0056399 0.0194003 0.0096255 0.0364742 0.0108717 0.102145 0.0114011 0.0543592
74 3 O 26.4287 1.41474 6.10394 -1.2 0.525341 0.00458007 0.0144693 0.00307931 0.0225577 0.00496617 0.037365 0.0131821 0.103653 0.0142588 0.0359995 1 0.00470555 0.0110573 0.00631007 0.0186095 0.00461532 0.0285825 0.00928658 0.100948 0.0107744 0.0529248
75 3 O 19.9036 1.36478 3.41939 -1.2 0.520742 0.00372799 0.00876635 0.00675875 0.0214952 0.00537456 0.0385804 0.0212397 0.106619 0.0242235 0.0341729 1 0.00216286 0.0062614 0.00464246 0.0228624 0.00637412 0.0321231 0.011981 0.0945933 0.0122345 0.0588824
76 3 O 27.1922 2.67496 3.91784 -1.2 0.521913 0.00710333 0.0147685 0.00805463 0.0176455 0.00874086 0.0386011 0.0188519 0.104669 0.0198853 0.0405768 1 0.00556056 0.00976778 0.00524889 0.0197069 0.00837819 0.0351762 0.0155161 0.0967105 0.0164182 0.0549184
77 1 Mg 25.5314 5.91559 2.37304 1.2 0.229394 0.00263563 0.0259127 0.00162286 0.0128893 0.00223797 0.0606209 0.0054274 0.0944251 0.0074846 0.0618089 1 0.00185418 0.00682635 0.00375184 0.024009 0.00439645 0.0332785 0.00581297 0.104011 0.00587238 0.0557815
78 3 O 27.1386 0.137762 3.79598 -1.2 0.524856 0.011611 0.0146029 0.00958821 0.013661 0.0103139 0.0422223 0.0220685 0.104101 0.0291502 0.041385 1 0.00687067 0.00776174 0.00532318 0.0161051 0.00992653 0.0339701 0.0118447 0.0923964 0.0153594 0.0552469
79 1 Mg 22.7336 4.43415 2.3343 1.2 0.227361 0.00153774 0.0243375 0.00491443 0.0116191 0.00382164 0.0615956 0.00662207 0.0944363 0.00612082 0.0629635 1 0.00419624 0.00941004 0.00443282 0.0254662 0.00550343 0.0267196 0.0117359 0.103894 0.0135635 0.0540107
80 2 Si 24.5535 4.46395 0.325945 2.4 0.144883 0.0069146 0.0197754 0.00979777 0.059831 0.0140264 0.0633632 0.0137497 0.0449997 0.0142524 0.0504638 1 0.00414418 0.00827981 0.00626255 0.0223174 0.00847291 0.0344378 0.00897918 0.0962174 0.014032 0.056659
81 3 O 24.5977 4.53473 -1.23161 -1.2 0.520539 0.00617889 0.00952169 0.00837133 0.021726 0.0101517 0.0390284 0.0121907 0.106311 0.0139985 0.0356182 1 0.00527896 0.0113589 0.00623442 0.0199933 0.00712386 0.0263447 0.00991668 0.097041 0.0114371 0.0559496
82 3 O 31.1032 4.58904 1.36664 -1.2 0.51833 0.00274972 0.0093829 0.00736729 0.0196594 0.00632729 0.040915 0.0236909 0.110727 0.0246479 0.036539 1 0.00388351 0.00860649 0.00477413 0.0195383 0.00892279 0.0317847 0.0138027 0.0999379 0.0150083 0.0607102
83 3 O 23.8821 5.83467 1.08828 -1.2 0.522724 0.00595587 0.00582313 0.00864308 0.0148361 0.009516 0.040066 0.0178286 0.106675 0.0202579 0.0361832 1 0.00518597 0.00638937 0.00402821 0.0172659 0.00676645 0.0306598 0.0103325 0.0902739 0.0136625 0.0544425
84 3 O 23.9819 3.23427 0.948128 -1.2 0.519791 0.00722838 0.00849443 0.00896016 0.0197427 0.00913725 0.0406322 0.00791942 0.106031 0.0197052 0.0351991 1 0.00686461 0.0093344 0.00754333 0.022632 0.0091587 0.0341669 0.010216 0.0940329 0.0163018 0.0553826
85 1 Mg -0.0110268 6.00656 0.0915605 1.2 0.227486 0.00106008 0.0274443 0.0022875 0.0136695 0.00324121 0.0611078 0.00353352 0.0937255 0.00404468 0.0607501 1 0.00333858 0.00759072 0.00688185 0.0226989 0.0039136 0.0333154 0.00637432 0.103189 0.0086924 0.0555541
86 1 Mg 7.44914 10.488 4.56357 1.2 0.228249 0.00199231 0.0256021 0.00344475 0.0116322 0.00407481 0.0603189 0.00967915 0.0950207 0.00660395 0.0628727 1 0.0054982 0.00855225 0.00336896 0.0233064 0.00557949 0.026254 0.0127801 0.102034 0.0135633 0.0491938
87 2 Si 9.29166 10.5701 1.97578 2.4 0.142706 0.00536003 0.0207904 0.00997064 0.0605758 0.0121717 0.0636079 0.013284 0.0445744 0.0130251 0.0490134 1 0.00290226 0.00930863 0.0042354 0.0231063 0.00639343 0.0356298 0.012492 0.0975917 0.0143021 0.0527963
88 3 O 9.33396 10.549 3.53365 -1.2 0.522326 0.00590903 0.00999816 0.00597643 0.0271235 0.00788862 0.0335228 0.00558877 0.110418 0.0125968 0.0361451 1 0.00490882 0.0106657 0.00549185 0.022007 0.00562011 0.0271629 0.0122244 0.0967337 0.0134753 0.0530836
89 3 O 5.47395 10.4546 0.846767 -1.2 0.519098 0.00645406 0.00831735 0.00610162 0.0240001 0.00255615 0.0358645 0.0283614 0.109342 0.0224494 0.0329351 1 0.0038574 0.00963151 0.00543871 0.023825 0.00413099 0.029279 0.0155158 0.0957516 0.0153338 0.0649492
90 3 O 8.50948 11.7843 1.19718 -1.2 0.518502 0.00566522 0.00757363 0.00750782 0.0245259 0.00994741 0.036496 0.0150845 0.113193 0.0179846 0.0319042 1 0.00537798 0.00655272 0.00488552 0.0247171 0.00734956 0.0362979 0.0150376 0.087514 0.0205554 0.0550007
91 1 Mg 0.0815346 9.03218 0.0837595 1.2 0.226542 0.00107488 0.0267198 0.0010933 0.0125282 0.00314435 0.0615071 0.00423064 0.0927504 0.00668196 0.0596017 1 0.00104077 0.00932217 0.00240173 0.0194503 0.00335153 0.0306846 0.00483708 0.103036 0.0050829 0.0541952
92 3 O 8.69595 9.29458 1.31001 -1.2 0.524196 0.0053763 0.0086666 0.00660998 0.0228402 0.0101994 0.0386365 0.0155531 0.109785 0.0225538 0.0329939 1 0.00283564 0.00825788 0.00486205 0.0198884 0.00881636 0.0338096 0.0133555 0.0924782 0.0174936 0.0510516
93 1 Mg 2.92437 7.63568 0.0966553 1.2 0.228202 0.00113896 0.0268336 0.00385897 0.0112415 0.00333467 0.0611478 0.00831948 0.0939799 0.00519158 0.0624073 1 0.00488219 0.00881495 0.00528046 0.0205591 0.0065489 0.0289851 0.0134538 0.100521 0.0155763 0.0518006
94 2 Si 0.998098 7.47169 2.68673 2.4 0.152211 0.0076027 0.018408 0.0101729 0.0625216 0.0190235 0.0659172 0.0172162 0.0465087 0.0168213 0.0513875 1 0.00782823 0.0053562 0.00800553 0.0211074 0.00958906 0.036689 0.0142179 0.0919838 0.0145645 0.053929
95 3 O 0.853272 7.60493 1.13604 -1.2 0.52746 0.00646972 0.00864516 0.00980892 0.0281247 0.00906714 0.0307827 0.0136314 0.103753 0.0137925 0.036757 1 0.00820592 0.00979986 0.00675053 0.0208129 0.00848945 0.0259396 0.0104247 0.0960686 0.00930942 0.0519404
96 3 O 4.67266 7.54912 3.70033 -1.2 0.526455 0.00649418 0.00900979 0.00586824 0.0203188 0.00683434 0.0365443 0.0179085 0.10444 0.0224676 0.0390891 1 0.00591898 0.00512335 0.0045308 0.0212258 0.00523133 0.0303858 0.0101137 0.0934996 0.0122076 0.0619268
97 3 O 1.60856 8.74807 3.40336 -1.2 0.528901 0.0119858 0.00924003 0.011719 0.0193533 0.0121124 0.040036 0.0134587 0.102982 0.0195208 0.0385893 1 0.00885695 0.00704046 0.00872458 0.0167604 0.00873025 0.0380633 0.0128174 0.0901237 0.0135345 0.0528644
98 3 O 1.83626 6.28124 3.22636 -1.2 0.527771 0.00763967 0.0105233 0.00816295 0.0186185 0.00851851 0.0364697 0.0218079 0.105902 0.022446 0.0363636 1 0.00637359 0.00720766 0.00645462 0.0199497 0.00573029 0.0344261 0.0141453 0.0909913 0.0162772 0.0497517
99 1 Mg 5.15145 9.09147 2.29189 1.2 0.228 0.00149814 0.0253374 0.00128499 0.012477 0.00205061 0.0601855 0.00526568 0.093703 0.0043801 0.0605124 1 0.00326934 0.00811778 0.00479223 0.0262806 0.00313662 0.0324429 0.00564449 0.0999013 0.00704816 0.0566849
100 1 Mg 7.90467 7.60118 2.29984 1.2 0.226455 0.000415616 0.0246742 0.00459449 0.0118822 0.00418587 0.0596628 0.00848214 0.0936561 0.00545289 0.0606548 1 0.00336373 0.00876442 0.00727184 0.0221873 0.0058093 0.0278787 0.0142944 0.101077 0.0142142 0.0501405
101 2 Si 6.08927 7.56939 4.3799 2.4 0.148323 0.00945417 0.0171566 0.00954815 0.0616356 0.0188476 0.0638897 0.0182233 0.0455931 0.0171175 0.0508867 1 0.00613916 0.00531199 0.00691201 0.0190042 0.00842344 0.0342642 0.0115605 0.0958767 0.013277 0.0523366
102 3 O 6.01604 7.57127 5.89114 -1.2 0.527665 0.00221052 0.00561731 0.00316367 0.0265696 0.00588386 0.0306199 0.00361275 0.106492 0.011982 0.0389967 1 0.00508343 0.00660505 0.00597739 0.0206604 0.0060411 0.0241836 0.0122086 0.0966372 0.00935449 0.0500089
103 3 O -0.467184 7.4579 3.48912 -1.2 0.527272 0.0102291 0.0110423 0.00660319 0.0186642 0.00644392 0.0408156 0.0238001 0.105385 0.023678 0.0399958 1 0.00819776 0.00735423 0.00448646 0.0192162 0.00633755 0.0335802 0.0143372 0.0960584 0.0117866 0.0572351
104 3 O 6.79565 8.83639 3.63075 -1.2 0.525405 0.00781946 0.00911814 0.00713326 0.0236009 0.00744986 0.0346681 0.010528 0.10631 0.0176743 0.0364962 1 0.00632038 0.00761111 0.00514468 0.0210376 0.00579658 0.0312496 0.0120046 0.0921776 0.0172247 0.0519437
105 1 Mg 4.94625 12.0034 2.18981 1.2 0.228055 0.00117569 0.0257159 0.0011595 0.0137031 0.00199331 0.0594816 0.00448288 0.0938215 0.0035557 0.0609877 1 0.00283552 0.00877964 0.00261184 0.0271103 0.00466123 0.0303559 0.00503294 0.0986204 0.00774236 0.0547445
106 3 O 6.84987 6.28484 3.60893 -1.2 0.52695 0.00963254 0.00644892 0.00903508 0.0193396 0.00819221 0.0359396 0.0113934 0.104611 0.0213389 0.0390264 1 0.00695385 0.00462063 0.00720404 0.0197591 0.00722465 0.0320821 0.0120442 0.0920595 0.0188744 0.0531638
107 1 Mg 2.20974 10.3914 2.53793 1.2 0.228389 0.00126786 0.0268172 0.00515318 0.0115877 0.005133 0.0610909 0.00996016 0.093966 0.0063387 0.0613786 1 0.00595744 0.00744667 0.0057708 0.0195609 0.00531335 0.0282719 0.00855086 0.100665 0.0116905 0.04987
108 2 Si 3.98616 10.525 0.192042 2.4 0.140645 0.00603269 0.0193772 0.0106474 0.059764 0.0172061 0.0608581 0.0166955 0.043845 0.0168364 0.0493005 1 0.00423443 0.0109054 0.00649353 0.0256284 0.00921424 0.0342597 0.0116565 0.0932668 0.0133011 0.0556596
109 3 O 4.02942 10.5079 -1.32186 -1.2 0.52304 0.00122682 0.0075419 0.00439283 0.0328481 0.00386816 0.0268108 0.0159183 0.105223 0.0174811 0.0342738 1 0.00508453 0.0114647 0.0061228 0.0288524 0.00420108 0.0239848 0.0117642 0.0977884 0.0127156 0.0544932
110 3 O 10.7807 10.7199 1.26485 -1.2 0.523113 0.00537011 0.0131556 0.00781359 0.0222733 0.00636893 0.0388274 0.0253777 0.110094 0.0242224 0.0360003 1 0.00246687 0.013393 0.00732205 0.0226629 0.00711372 0.0316859 0.0152453 0.0930399 0.0153685 0.0583218
111 3 O 3.44849 11.8389 0.929307 -1.2 0.522812 0.00303241 0.00333628 0.005523 0.0229767 0.00641868 0.0333902 0.0183403 0.104616 0.0189855 0.0336429 1 0.00145106 0.00681071 0.00507948 0.0219148 0.00739047 0.0298802 0.0112725 0.0911568 0.0141033 0.0546227
112 3 O 3.23437 9.27945 0.962863 -1.2 0.52443 0.00322225 0.00442693 0.00634442 0.0241714 0.00690337 0.0346467 0.0111873 0.10434 0.01777 0.0327674 1 0.00519045 0.0100794 0.00611933 0.0218787 0.00623235 0.0342833 0.0107271 0.0924015 0.0147459 0.0528481
113 1 Mg 10.0754 5.97031 -0.0240765 1.2 0.222946 0.000912058 0.0233106 0.0015472 0.0113041 0.00408478 0.0612361 0.00606938 0.090271 0.00519168 0.0599974 1 0.00406707 0.00929581 0.00674388 0.0246418 0.00362416 0.0325356 0.00836877 0.101346 0.00739416 0.051653
114 1 Mg 17.5676 10.4765 4.75478 1.2 0.227677 0.00173695 0.0261865 0.00363377 0.0112513 0.00369279 0.0586018 0.00852788 0.093299 0.00470928 0.0617499 1 0.0047526 0.0124843 0.00559062 0.017439 0.00607564 0.0286247 0.0104487 0.101569 0.0143058 0.0473385
115 2 Si 19.4162 10.342 2.02393 2.4 0.149277 0.00935066 0.0185468 0.0113685 0.0601732 0.0204441 0.0665141 0.0179006 0.0433309 0.01662 0.0514924 1 0.00611731 0.00980812 0.00574544 0.0212399 0.0100115 0.0377459 0.0116293 0.0934806 0.0164755 0.0546992
116 3 O 19.3909 10.3565 3.60853 -1.2 0.526675 0.00720302 0.0067411 0.00725252 0.0264085 0.00611438 0.0293398 0.0163957 0.10672 0.0191722 0.0391566 1 0.00569235 0.0101463 0.0076007 0.0244842 0.00503647 0.0250185 0.0103505 0.0989987 0.0159269 0.0508256