ITEM: TIMESTEP
0
ITEM: NUMBER OF ATOMS
756
ITEM: BOX BOUNDS pp pp pp
0	30.5955
0	17.9376
0	14.247
ITEM: ATOMS id type element xu yu zu q Q_mono_mono[1] Q_mono_mono[2] Q_mono_mono[3] Q_mono_mono[4] Q_mono_mono[5] Q_mono_mono[6] Q_mono_mono[7] Q_mono_mono[8] Q_mono_mono[9] Q_mono_mono[10] Q_multi_multi[1] Q_multi_multi[2] Q_multi_multi[3] Q_multi_multi[4] Q_multi_multi[5] Q_multi_multi[6] Q_multi_multi[7] Q_multi_multi[8] Q_multi_multi[9] Q_multi_multi[10]
1 1 Mg 0.0441822 0.0274347 0.0938741 1.2 0.00428064 0.111063 0.00677549 0.0656101 0.0150359 0.279065 0.0192843 0.409077 0.019915 0.27665 0.0069339 0.00588344 0.00284972 0.0228377 0.00308883 0.0328671 0.0055247 0.104374 0.00829638 0.0561072
2 1 Mg 7.3871 4.48452 4.69897 1.2 0.00263836 0.111812 0.0123349 0.0568069 0.0212882 0.277043 0.035897 0.412442 0.0250812 0.27733 0.00410487 0.00506786 0.00499358 0.0177916 0.00716695 0.0273495 0.011541 0.102774 0.0127544 0.0503462
3 2 Si 9.18248 4.67635 2.16713 2.4 0.0754855 0.133287 0.0698693 0.420501 0.130579 0.431642 0.114063 0.307023 0.103935 0.334463 0.00530026 0.00642386 0.00314366 0.0196697 0.00752402 0.0318486 0.0137529 0.0965922 0.0141433 0.0524275
4 3 O 9.2418 4.59889 3.67887 -1.2 0.010257 0.0162867 0.0116655 0.0472696 0.0138492 0.0607712 0.0205121 0.196644 0.0202955 0.07661 0.00570484 0.00632376 0.00561605 0.0217701 0.00773551 0.0254233 0.00921437 0.0980277 0.011314 0.0526798
5 3 O 5.64069 4.72294 0.94916 -1.2 0.0131437 0.0123199 0.0101422 0.0414894 0.00849161 0.0756022 0.0400969 0.205271 0.0493913 0.0690736 0.00624508 0.00803242 0.00443045 0.0194553 0.00642687 0.0295204 0.0119823 0.0961223 0.0144119 0.0595607
6 3 O 8.55873 5.88772 1.32398 -1.2 0.0141404 0.0164696 0.019225 0.0370206 0.0145273 0.0755538 0.0452504 0.200388 0.055719 0.0694106 0.00448507 0.00725004 0.00762856 0.017994 0.00812677 0.0323009 0.0138533 0.0890142 0.016399 0.0517236
7 1 Mg 0.0662114 3.09948 0.143595 1.2 0.00178802 0.110316 0.00499705 0.0613743 0.00856566 0.283594 0.0117081 0.410499 0.0153061 0.275785 0.00430595 0.0082625 0.00247731 0.0214351 0.00647793 0.0321894 0.00423618 0.102896 0.00836407 0.0564857
8 3 O 8.474 3.32488 1.48241 -1.2 0.0199053 0.0151429 0.0137046 0.0420905 0.0151813 0.0742574 0.0247329 0.207779 0.0447274 0.0653862 0.00760755 0.00603823 0.00613551 0.0214085 0.0070973 0.0313963 0.0124892 0.0962647 0.0155119 0.0533306
9 1 Mg 2.74823 1.67695 0.170996 1.2 0.0104169 0.109144 0.0197379 0.0571623 0.0162293 0.28086 0.0408504 0.405438 0.0368568 0.270625 0.0047149 0.00675583 0.00440122 0.0200775 0.00634007 0.0285277 0.0137699 0.103393 0.0168268 0.051787
10 2 Si 0.993408 1.51026 2.8161 2.4 0.0519029 0.135544 0.0675937 0.412942 0.0966384 0.439039 0.105012 0.30969 0.107064 0.340924 0.00226603 0.00543927 0.00780162 0.0211443 0.00850042 0.0372559 0.0127327 0.0964643 0.0144195 0.0535636
11 3 O 0.874495 1.62648 1.32173 -1.2 0.023203 0.0236149 0.018087 0.0415643 0.0208133 0.0661557 0.0225544 0.214243 0.0232848 0.0734342 0.0106992 0.00933393 0.00703648 0.0214044 0.0095587 0.0253932 0.0114382 0.0990604 0.0114005 0.0559893
12 3 O 4.56389 1.47941 3.83847 -1.2 0.00674424 0.0127566 0.0155435 0.0328653 0.0123351 0.0680815 0.0439752 0.206897 0.0451733 0.0792295 0.00110626 0.00719926 0.00492356 0.0209294 0.00679524 0.0290821 0.0133861 0.0940293 0.014155 0.0601956
13 3 O 1.679 2.76694 3.5474 -1.2 0.0106923 0.0185439 0.0165754 0.0311231 0.0183479 0.0764848 0.0320575 0.214138 0.0349194 0.0733717 0.00642356 0.00495514 0.00955129 0.0196971 0.00724723 0.0371181 0.0135928 0.0936998 0.0171296 0.0531816
14 3 O 1.59971 0.253057 3.38486 -1.2 0.0137293 0.0179626 0.0116079 0.0278704 0.0124996 0.0754544 0.0374248 0.207262 0.0511347 0.0722751 0.00450974 0.00613394 0.00438845 0.0174552 0.00691455 0.0370374 0.0140556 0.0915989 0.0189959 0.05217
15 1 Mg 5.19814 3.0854 2.27069 1.2 0.00325617 0.108343 0.00595207 0.0638509 0.0152815 0.281476 0.0195323 0.406845 0.0234322 0.273426 0.00565432 0.005978 0.00301344 0.0231599 0.00424798 0.0318046 0.00604408 0.104811 0.0120016 0.0546339
16 1 Mg 7.82297 1.53858 2.14441 1.2 0.0138279 0.103798 0.0232061 0.0505471 0.0150469 0.276979 0.0309253 0.398486 0.0332875 0.271236 0.00643512 0.00535304 0.00741111 0.0224452 0.00515055 0.0261465 0.0107054 0.10465 0.0127816 0.0542552
17 2 Si 6.14308 1.51692 4.4676 2.4 0.0750261 0.139235 0.0721366 0.423865 0.14736 0.430808 0.131046 0.310438 0.129897 0.341338 0.00278913 0.00661334 0.006296 0.0231462 0.00912549 0.0330306 0.0113482 0.093285 0.0119594 0.0567559
18 3 O 6.10246 1.47632 6.10413 -1.2 0.0125135 0.0125798 0.00957438 0.0479984 0.00969466 0.05637 0.0128105 0.195192 0.0224882 0.0710221 0.00218809 0.00803978 0.00310982 0.0222642 0.00541116 0.0256357 0.0111318 0.0964384 0.00936549 0.0519396
19 3 O -0.536329 1.53011 3.52627 -1.2 0.0242516 0.0250227 0.0170231 0.0331962 0.0127359 0.0765649 0.0405485 0.202631 0.0479417 0.0780883 0.00928635 0.00783484 0.00529835 0.0206285 0.00803413 0.0317025 0.0125046 0.0991855 0.0132824 0.0575488
20 3 O 6.72877 2.78804 3.74661 -1.2 0.00719088 0.0101281 0.0165898 0.0302589 0.0236828 0.068418 0.0305167 0.204609 0.0407404 0.0725053 0.00525965 0.00616375 0.00671979 0.0178164 0.00885242 0.0303641 0.0105617 0.0950563 0.0150801 0.0527202
21 1 Mg 4.96618 6.15836 2.3593 1.2 0.00589303 0.10992 0.00395142 0.0636016 0.0118861 0.276144 0.0209961 0.413574 0.0233531 0.274974 0.00557579 0.00731552 0.00460801 0.0236119 0.00110812 0.0339633 0.00685383 0.101859 0.00890025 0.0530658
22 3 O 6.67966 0.198351 3.74767 -1.2 0.00922053 0.00698022 0.0117454 0.0397646 0.0152861 0.0626799 0.0310316 0.202 0.0368487 0.0707004 0.0043485 0.00532782 0.00427675 0.0222319 0.00670821 0.0320062 0.0114899 0.0899623 0.0143836 0.0555633
23 1 Mg 2.32197 4.50962 2.30547 1.2 0.00839493 0.108948 0.0150047 0.0581579 0.0188509 0.280414 0.0386894 0.410675 0.0339176 0.272508 0.00586745 0.00853652 0.0076283 0.019369 0.00592557 0.0277539 0.0142259 0.105344 0.0156082 0.0521318
24 2 Si 4.12453 4.54089 0.291157 2.4 0.00564396 0.12102 0.062573 0.414468 0.0815033 0.430069 0.0969186 0.313081 0.103453 0.348241 0.00816731 0.00842946 0.00525945 0.0205662 0.0104774 0.0354058 0.0124716 0.0953173 0.0148446 0.053056
25 3 O 4.14867 4.57867 -1.24754 -1.2 0.0128248 0.0146036 0.0135987 0.0545477 0.014618 0.0635242 0.0245447 0.206572 0.0249521 0.0640012 0.00679546 0.00994292 0.00560266 0.0230347 0.0040292 0.0252732 0.0124684 0.0979851 0.0129258 0.0546982
26 3 O 10.7332 4.50042 1.42037 -1.2 0.0107197 0.0187137 0.00578918 0.0421023 0.00778498 0.0748463 0.0483129 0.209481 0.0461365 0.0724961 0.00496492 0.00835488 0.00440837 0.0205643 0.00558911 0.0296837 0.0133339 0.09511 0.0149901 0.0555918
27 3 O 3.42386 5.89331 1.00206 -1.2 0.0160029 0.0151186 0.0164621 0.0402252 0.0160108 0.0774292 0.0339385 0.212879 0.047259 0.0656911 0.00795308 0.00703648 0.00592036 0.0179452 0.00825819 0.0357023 0.0115955 0.0912292 0.0196609 0.052495
28 3 O 3.51006 3.27644 1.08623 -1.2 0.0142884 0.0101869 0.00997658 0.0417049 0.0151959 0.0760484 0.0250759 0.211337 0.039472 0.0639093 0.00733581 0.00678655 0.00512812 0.0195993 0.00708737 0.0369206 0.0148246 0.0905732 0.0187692 0.0533918
29 1 Mg 10.2156 0.00920186 -0.148051 1.2 0.00999768 0.0965136 0.0205947 0.0638277 0.0150455 0.272648 0.0268342 0.398795 0.0214491 0.275176 0.00404985 0.00612737 0.00540666 0.0227409 0.00434443 0.0302728 0.00577591 0.104783 0.00846298 0.0553785
30 1 Mg 17.4447 4.45303 4.61223 1.2 0.00834484 0.113877 0.0204345 0.0555279 0.0175254 0.272315 0.0312726 0.41188 0.025033 0.273583 0.00809422 0.00975361 0.00645905 0.0195558 0.00787701 0.0270791 0.0136019 0.102237 0.0158725 0.0505798
31 2 Si 19.3923 4.24903 2.04217 2.4 0.0952563 0.160154 0.0846119 0.443438 0.121446 0.438867 0.113528 0.32038 0.104816 0.338941 0.00435932 0.00645557 0.00330633 0.0204379 0.00841386 0.035082 0.0114228 0.0987376 0.0151547 0.0534715
32 3 O 19.4764 4.39517 3.63366 -1.2 0.0118271 0.0156604 0.0126238 0.0529539 0.0108309 0.0632171 0.0189593 0.201474 0.0312221 0.0636795 0.0036742 0.0104531 0.00596084 0.0214125 0.00500752 0.0265965 0.0113871 0.0979974 0.0150787 0.0537948
33 3 O 15.8016 4.35176 1.12535 -1.2 0.00946642 0.0123018 0.0112823 0.0390541 0.00975531 0.0720008 0.0522765 0.210946 0.0441499 0.0678645 0.00358589 0.0102546 0.0039857 0.0197928 0.00653691 0.0304236 0.0146051 0.0966269 0.0141268 0.0569709
34 3 O 18.7591 5.60488 1.39005 -1.2 0.017394 0.0114073 0.0185525 0.0418539 0.0188963 0.0734745 0.0324822 0.21229 0.0345676 0.0635179 0.00850568 0.0101246 0.00605582 0.0188015 0.008392 0.0338059 0.0122166 0.0929895 0.0153377 0.0537821
35 1 Mg 10.0366 3.00835 0.208302 1.2 0.0133046 0.101555 0.0133736 0.0481288 0.0151923 0.276007 0.0207955 0.400089 0.0217488 0.269325 0.00676254 0.00518489 0.00265729 0.0249625 0.00507362 0.0304901 0.00577427 0.102176 0.00826719 0.0545286
36 3 O 18.8472 2.98267 1.32196 -1.2 0.00987395 0.0123082 0.0145365 0.0413016 0.018457 0.0742754 0.0382642 0.206699 0.0406785 0.0639045 0.00398519 0.0071296 0.00510774 0.0187086 0.00912867 0.0337774 0.0135275 0.0903175 0.0153557 0.0523484
37 1 Mg 12.938 1.37159 0.0253617 1.2 0.00700726 0.0984831 0.0205453 0.0500028 0.0223434 0.279465 0.0454445 0.400197 0.0352837 0.27113 0.00435433 0.00905215 0.00345599 0.0224308 0.00619246 0.0273577 0.0121722 0.0997617 0.0128506 0.0514261
38 2 Si 11.2885 1.58077 2.62985 2.4 0.0398057 0.128189 0.0755079 0.405434 0.111253 0.438389 0.124843 0.294062 0.121604 0.33938 0.00700612 0.00559512 0.00770202 0.0214451 0.0102431 0.0343576 0.0132565 0.0938711 0.0144684 0.0536925
39 3 O 11.0888 1.5677 1.08534 -1.2 0.0162415 0.0185824 0.0101055 0.047008 0.0139361 0.068824 0.0251521 0.204487 0.0317877 0.0715631 0.00478988 0.00969946 0.00916084 0.0220615 0.00596513 0.023772 0.0101166 0.0965781 0.0112934 0.0562095
40 3 O 14.6986 1.48665 3.75233 -1.2 0.0196289 0.0184212 0.0178741 0.0265099 0.012746 0.0811311 0.0359813 0.20707 0.0450617 0.0737896 0.00960777 0.0108952 0.0071382 0.0144022 0.00783375 0.0300914 0.0118287 0.0955777 0.0128953 0.0536275
41 3 O 11.9308 2.73709 3.36757 -1.2 0.0135773 0.0169752 0.00827367 0.0355684 0.0117163 0.069554 0.0296604 0.200459 0.042572 0.0726191 0.00506605 0.00749165 0.00433346 0.0207033 0.00779126 0.0310213 0.0129614 0.0965229 0.0150106 0.051675
42 3 O 11.9211 0.224582 3.28945 -1.2 0.0104734 0.0158251 0.011902 0.0389356 0.0143347 0.0761776 0.0406118 0.206435 0.0497669 0.0708728 0.00502503 0.00913957 0.00520847 0.0192476 0.00872304 0.0341926 0.0124941 0.0928226 0.017142 0.0521612
43 1 Mg 15.1504 2.922 2.44497 1.2 0.00737033 0.110686 0.00345331 0.0629339 0.0177369 0.275415 0.0199145 0.411863 0.0246331 0.274126 0.00655227 0.0093997 0.00471939 0.0215268 0.0065283 0.0331827 0.00464983 0.10319 0.00444159 0.0534055
44 1 Mg 18.1082 1.23636 2.35455 1.2 0.00347803 0.11023 0.0190979 0.0564171 0.0137181 0.272878 0.0303606 0.411426 0.0153912 0.26962 0.00614968 0.00828332 0.0063039 0.0185999 0.00702829 0.0283687 0.0158679 0.102491 0.0166033 0.0464198
45 2 Si 16.1778 1.57345 4.45936 2.4 0.0497445 0.118468 0.0558416 0.402721 0.12386 0.434008 0.109574 0.294219 0.113056 0.330019 0.0109115 0.00825512 0.00453604 0.0172735 0.00758511 0.0360294 0.013183 0.0972281 0.0157021 0.0489177
46 3 O 15.9905 1.52688 6.00501 -1.2 0.0104123 0.0115602 0.0128249 0.041475 0.0143876 0.0616913 0.0258382 0.201728 0.0172089 0.0676648 0.0061569 0.0086217 0.00824925 0.0165171 0.00955563 0.0287203 0.00863181 0.0937897 0.00945001 0.0487351
47 3 O 9.76524 1.57042 3.29072 -1.2 0.00739424 0.012752 0.0141767 0.0310954 0.0114202 0.0737153 0.0467797 0.202082 0.0446496 0.0774756 0.00440393 0.00521421 0.00727942 0.0206514 0.00667542 0.0297333 0.013009 0.0969013 0.0138012 0.0594872
48 3 O 16.9196 2.82325 3.77472 -1.2 0.0313476 0.0111281 0.0199762 0.0340903 0.0180791 0.0762022 0.0289912 0.206325 0.0579369 0.0637982 0.0112324 0.0101621 0.00796103 0.0146149 0.00864732 0.0333189 0.0128201 0.0914381 0.0205475 0.0521828
49 1 Mg 15.2988 5.92763 2.35863 1.2 0.00407242 0.112806 0.00597966 0.0643108 0.0120698 0.276079 0.0173763 0.407418 0.0194526 0.271737 0.000925007 0.012745 0.00438875 0.0206644 0.00468739 0.0322599 0.0034765 0.100258 0.00539598 0.0532974
50 3 O 17.006 0.29994 3.75259 -1.2 0.0196044 0.0139576 0.0149901 0.0363678 0.0161838 0.0772178 0.0282064 0.209422 0.0476107 0.0615784 0.0082557 0.00822943 0.00471948 0.0173997 0.00983704 0.0357126 0.0144625 0.09055 0.019227 0.0481324
51 1 Mg 12.4841 4.56283 2.52917 1.2 0.00641826 0.099408 0.0199696 0.0500031 0.0233056 0.280367 0.0425909 0.404275 0.0234395 0.27189 0.0053954 0.00733167 0.00263444 0.0170656 0.0063848 0.0298355 0.0111161 0.102445 0.0151325 0.0480844
52 2 Si 14.2982 4.39698 0.296624 2.4 0.0389881 0.126364 0.0660285 0.398465 0.0994545 0.441506 0.0930069 0.294844 0.098918 0.339764 0.00243015 0.00901127 0.00690081 0.0190778 0.00888079 0.0356844 0.0119692 0.0974439 0.0136626 0.0529661
53 3 O 14.4817 4.38762 -1.26978 -1.2 0.00770723 0.0142879 0.00852331 0.0458223 0.0114757 0.0687139 0.0108895 0.208932 0.0227851 0.0690381 0.00248257 0.0111687 0.00776543 0.0176003 0.00673623 0.027763 0.0103643 0.0973213 0.0112171 0.0487769
54 3 O 20.8422 4.35965 1.46375 -1.2 0.00419039 0.0195102 0.0101382 0.0431595 0.006408 0.075963 0.0486871 0.209621 0.0424493 0.0665488 0.00288658 0.00841994 0.00538903 0.0237796 0.00675909 0.0288416 0.0140143 0.0965194 0.0156216 0.0637027
55 3 O 13.8177 5.77838 0.950622 -1.2 0.00686429 0.0142258 0.0112848 0.0428564 0.0144388 0.0731432 0.0249464 0.208154 0.0322794 0.0716512 0.00444198 0.0103267 0.00624645 0.0179571 0.00819424 0.0361438 0.0117914 0.0920476 0.0147913 0.0498647
56 3 O 13.5534 3.21103 1.07076 -1.2 0.00929781 0.0189662 0.0114433 0.0401812 0.0134757 0.076306 0.0380299 0.208266 0.0402858 0.0715936 0.00152174 0.00988843 0.00672932 0.0176346 0.00852623 0.0312272 0.0127639 0.0933866 0.0170795 0.0519762
57 1 Mg 20.5949 -0.0203262 -0.00156408 1.2 0.00868304 0.102099 0.00919812 0.056923 0.0150607 0.274083 0.0242004 0.405245 0.0221193 0.273865 0.00792921 0.00629826 0.00656872 0.0251801 0.00423501 0.032945 0.00457424 0.100209 0.0127503 0.0536317
58 1 Mg 27.6489 4.49604 4.79608 1.2 0.00580719 0.111993 0.0201408 0.0566667 0.0153387 0.279511 0.0344902 0.409711 0.0278621 0.270146 0.00435171 0.0113182 0.0060182 0.0186695 0.00653793 0.0289784 0.0155348 0.106099 0.0157223 0.0538744
59 2 Si 29.5445 4.53645 2.10924 2.4 0.0521099 0.151421 0.064977 0.414613 0.11355 0.439306 0.108672 0.319162 0.109195 0.340935 0.00363029 0.00828783 0.00496401 0.0211845 0.00854128 0.033615 0.0117304 0.101141 0.0128485 0.053494
60 3 O 29.7497 4.68345 3.59773 -1.2 0.0111462 0.0221571 0.0142784 0.042942 0.014438 0.0697108 0.0303758 0.213195 0.0289549 0.0675446 0.00440259 0.00929208 0.00607436 0.0206688 0.00611613 0.027477 0.0116776 0.102993 0.0117519 0.0534385
61 3 O 26.104 4.54482 1.00472 -1.2 0.0100569 0.0151719 0.0128905 0.0386262 0.0098377 0.0746844 0.0398568 0.200891 0.0486387 0.0741028 0.00260253 0.00834175 0.00311481 0.0229534 0.00647536 0.0294068 0.0118001 0.0946699 0.0152766 0.0611528
62 3 O 28.8763 5.77803 1.32097 -1.2 0.00615476 0.0167512 0.0152372 0.0381702 0.017144 0.0725559 0.019144 0.204853 0.0384695 0.0696848 0.00322147 0.0096446 0.00561759 0.0188637 0.00970466 0.0318416 0.0113693 0.0964278 0.0144144 0.0529917
63 1 Mg 20.3251 2.88609 -0.0330436 1.2 0.00418243 0.106936 0.00729359 0.0648963 0.0163877 0.279663 0.0160769 0.410837 0.014573 0.274998 0.00157097 0.00912325 0.0028975 0.0249872 0.00523839 0.0316135 0.00660749 0.105643 0.0102633 0.0537717
64 3 O 28.9408 3.16899 1.43922 -1.2 0.00881455 0.017136 0.0158568 0.0310908 0.0155077 0.0800806 0.0369111 0.212971 0.0528677 0.0740332 0.00339705 0.00933792 0.00548304 0.0158217 0.00609288 0.0334062 0.0124018 0.0962212 0.0160178 0.0556763
65 1 Mg 23.1565 1.4177 0.107364 1.2 0.00744627 0.102637 0.0225803 0.0488705 0.0177885 0.279004 0.035057 0.40951 0.0230394 0.279683 0.00824124 0.00796262 0.0042798 0.0226451 0.00525871 0.0274986 0.0112601 0.103272 0.0131999 0.0509989
66 2 Si 21.4065 1.28314 2.63466 2.4 0.0291667 0.136835 0.071639 0.42064 0.104471 0.431103 0.104502 0.313789 0.104955 0.337228 0.00403395 0.00580257 0.00661602 0.0222063 0.00988853 0.0367308 0.0104532 0.095372 0.0151539 0.0529069
67 3 O 21.4207 1.35924 1.03789 -1.2 0.0204893 0.0148897 0.0131422 0.0511378 0.012517 0.0583802 0.0208735 0.201046 0.0376574 0.0674242 0.00663485 0.00962043 0.00426102 0.0245333 0.00479431 0.0240863 0.0118237 0.0972286 0.0170773 0.0529264
68 3 O 25.0059 1.45302 3.72758 -1.2 0.0152518 0.0218495 0.015492 0.0363853 0.0129519 0.0752537 0.0498682 0.195058 0.0473637 0.0782442 0.00500776 0.00613911 0.00715542 0.0232408 0.00685475 0.0316993 0.0143348 0.0950799 0.0132411 0.0622028
69 3 O 22.1322 2.49415 3.324 -1.2 0.0131037 0.0165087 0.0124861 0.0443639 0.0135417 0.0689349 0.02921 0.201418 0.0366479 0.0653194 0.00581151 0.00628865 0.00556927 0.0238593 0.00666501 0.035025 0.0113362 0.0962555 0.0159703 0.0536182
70 3 O 21.9426 0.0481037 3.38463 -1.2 0.011521 0.0185315 0.0207407 0.0279957 0.0210319 0.080882 0.0345467 0.201288 0.0382035 0.0652772 0.00798032 0.00566435 0.00585025 0.0154791 0.00960146 0.0350239 0.00914026 0.0914886 0.0104645 0.0497197
71 1 Mg 25.5903 2.9712 2.33916 1.2 0.00638175 0.110852 0.00325647 0.0649211 0.0127748 0.281396 0.0194906 0.413665 0.0214034 0.281871 0.00593282 0.00817673 0.00482406 0.0241386 0.00368577 0.0331475 0.00583769 0.103044 0.00635011 0.0549531
72 1 Mg 28.2973 1.40666 2.41584 1.2 0.00582458 0.111518 0.0160284 0.0569255 0.0123433 0.279267 0.0383414 0.41089 0.0224503 0.276425 0.0076788 0.00773887 0.00651541 0.0200284 0.00510143 0.0280289 0.012416 0.107178 0.0132096 0.0526822
73 2 Si 26.4096 1.45287 4.53643 2.4 0.0471795 0.124372 0.0453134 0.403164 0.0860075 0.43565 0.0784852 0.300393 0.0791191 0.336766 0.00295022 0.00870525 0.0056399 0.0194004 0.0096255 0.0364742 0.0108717 0.102145 0.0114011 0.0543592
74 3 O 26.4287 1.41474 6.10394 -1.2 0.00873301 0.0277179 0.00606124 0.0428807 0.0098331 0.0712704 0.0253448 0.197813 0.0272854 0.0683813 0.00470555 0.0110573 0.00631007 0.0186095 0.00461532 0.0285825 0.00928658 0.100948 0.0107744 0.0529248
75 3 O 19.9036 1.36478 3.41939 -1.2 0.00732334 0.0172588 0.0131974 0.0413673 0.00995167 0.0741236 0.0411522 0.20556 0.0471276 0.0654795 0.00216286 0.0062614 0.00464246 0.0228624 0.00637412 0.0321231 0.011981 0.0945933 0.0122345 0.0588824
76 3 O 27.1922 2.67496 3.91784 -1.2 0.0135666 0.0284224 0.0146029 0.0338878 0.0158573 0.0741635 0.0354003 0.201097 0.0373779 0.0775918 0.00556056 0.00976778 0.00524889 0.0197069 0.00837819 0.0351762 0.0155161 0.0967105 0.0164182 0.0549184
77 1 Mg 25.5314 5.91559 2.37304 1.2 0.0113449 0.108377 0.00775112 0.0632796 0.00878399 0.271856 0.0223375 0.411303 0.0336531 0.274359 0.00185418 0.00682635 0.00375184 0.024009 0.00439645 0.0332785 0.00581297 0.104011 0.00587238 0.0557815
78 3 O 27.1386 0.137762 3.79598 -1.2 0.0221523 0.027859 0.0184037 0.0261992 0.0197715 0.0804532 0.0420034 0.198824 0.0548708 0.0788027 0.00687067 0.00776174 0.00532318 0.0161051 0.00992653 0.0339701 0.0118447 0.0923964 0.0153594 0.0552469
79 1 Mg 22.7336 4.43415 2.3343 1.2 0.00634439 0.103072 0.0204622 0.0578407 0.0167622 0.276472 0.0274125 0.414528 0.02665 0.279803 0.00419625 0.00941004 0.00443282 0.0254663 0.00550343 0.0267196 0.0117359 0.103894 0.0135635 0.0540107
80 2 Si 24.5535 4.46395 0.325945 2.4 0.0521408 0.144594 0.0751149 0.41668 0.10433 0.438962 0.103312 0.313038 0.10944 0.35018 0.00414418 0.00827981 0.00626255 0.0223175 0.00847291 0.0344378 0.00897918 0.0962174 0.014032 0.056659
81 3 O 24.5977 4.53473 -1.23161 -1.2 0.0113375 0.0191219 0.0159638 0.042396 0.0188028 0.0752883 0.0241921 0.205466 0.0274732 0.0682497 0.00527897 0.0113589 0.00623442 0.0199934 0.00712386 0.0263447 0.00991668 0.097041 0.0114371 0.0559496
82 3 O 31.1032 4.58904 1.36664 -1.2 0.00534363 0.0184997 0.0139616 0.038104 0.012265 0.0788871 0.0458428 0.21408 0.0474675 0.0701188 0.00388351 0.0086065 0.00477414 0.0195383 0.00892279 0.0317847 0.0138027 0.0999379 0.0150083 0.0607102
83 3 O 23.8821 5.83467 1.08828 -1.2 0.0114497 0.0116916 0.0163861 0.0287247 0.0175187 0.0768062 0.0345832 0.204907 0.0387956 0.0689633 0.00518598 0.00638937 0.00402821 0.0172659 0.00676645 0.0306598 0.0103325 0.0902739 0.0136625 0.0544425
84 3 O 23.9819 3.23427 0.948128 -1.2 0.0136192 0.0169278 0.0181228 0.0386823 0.0183584 0.0781732 0.0150419 0.20484 0.036687 0.067546 0.00686462 0.00933441 0.00754334 0.0226321 0.0091587 0.0341669 0.010216 0.0940329 0.0163018 0.0553826
85 1 Mg -0.0110268 6.00656 0.0915605 1.2 0.00509443 0.115064 0.00899575 0.0665777 0.0154719 0.276528 0.0181973 0.412206 0.0201528 0.272423 0.00333858 0.00759073 0.00688185 0.022699 0.0039136 0.0333154 0.00637432 0.103189 0.0086924 0.0555541
86 1 Mg 7.44914 10.488 4.56357 1.2 0.00858568 0.107813 0.0145563 0.0566453 0.0175097 0.270778 0.0403484 0.415469 0.029374 0.278937 0.0054982 0.00855225 0.00336896 0.0233064 0.00557949 0.026254 0.0127801 0.102034 0.0135633 0.0491938
87 2 Si 9.29166 10.5701 1.97578 2.4 0.0373358 0.146268 0.0746178 0.42504 0.085606 0.445257 0.0978906 0.312559 0.0956705 0.343652 0.00290226 0.00930862 0.0042354 0.0231063 0.00639343 0.0356298 0.012492 0.0975917 0.0143021 0.0527963
88 3 O 9.33396 10.549 3.53365 -1.2 0.0113952 0.0194548 0.0112296 0.0526465 0.0149821 0.0640397 0.0102052 0.21215 0.0239253 0.0691435 0.00490883 0.0106657 0.00549185 0.0220071 0.00562011 0.0271629 0.0122244 0.0967337 0.0134753 0.0530836
89 3 O 5.47395 10.4546 0.846767 -1.2 0.0123865 0.0163399 0.011696 0.0465791 0.00495469 0.0692164 0.0558313 0.211491 0.0440478 0.0631976 0.00385741 0.00963151 0.00543871 0.023825 0.00413099 0.029279 0.0155158 0.0957516 0.0153338 0.0649492
90 3 O 8.50948 11.7843 1.19718 -1.2 0.0110803 0.0150495 0.0145912 0.0477031 0.019265 0.0707457 0.0289739 0.219315 0.0345135 0.0612762 0.00537799 0.00655272 0.00488552 0.0247172 0.00734956 0.0362979 0.0150376 0.087514 0.0205554 0.0550007
91 1 Mg 0.0815346 9.03218 0.0837595 1.2 0.00446259 0.113213 0.00552109 0.0602316 0.0144341 0.277815 0.0185256 0.409622 0.0302507 0.26742 0.00104077 0.00932217 0.00240173 0.0194504 0.00335153 0.0306846 0.00483708 0.103036 0.0050829 0.0541952
92 3 O 8.69595 9.29458 1.31001 -1.2 0.00990014 0.016627 0.0126147 0.0441602 0.0193345 0.0737278 0.0301594 0.210134 0.0427363 0.0626389 0.00283564 0.00825788 0.00486205 0.0198884 0.00881636 0.0338096 0.0133555 0.0924782 0.0174936 0.0510516
93 1 Mg 2.92437 7.63568 0.0966553 1.2 0.00525757 0.112418 0.0165145 0.0552516 0.0143197 0.274385 0.0362848 0.411584 0.0237546 0.276545 0.0048822 0.00881495 0.00528046 0.0205592 0.0065489 0.0289851 0.0134538 0.100521 0.0155763 0.0518006
94 2 Si 0.998098 7.47169 2.68673 2.4 0.0503111 0.124278 0.0672797 0.412587 0.127936 0.433493 0.113228 0.307305 0.111036 0.338303 0.00782824 0.0053562 0.00800553 0.0211075 0.00958906 0.036689 0.0142179 0.0919838 0.0145645 0.053929
95 3 O 0.853272 7.60493 1.13604 -1.2 0.0119237 0.0163835 0.0191359 0.0536121 0.0176116 0.0583644 0.0269253 0.197313 0.0273674 0.0697365 0.00820593 0.00979986 0.00675054 0.0208129 0.00848945 0.0259396 0.0104247 0.0960686 0.00930942 0.0519404
96 3 O 4.67266 7.54912 3.70033 -1.2 0.0118547 0.0170331 0.011063 0.0386033 0.0128281 0.0697043 0.0335946 0.199056 0.0424034 0.0741104 0.00591899 0.00512335 0.00453081 0.0212259 0.00523133 0.0303858 0.0101137 0.0934996 0.0122076 0.0619268
97 3 O 1.60856 8.74807 3.40336 -1.2 0.0227639 0.0174864 0.0228774 0.0368455 0.0231992 0.0760822 0.024968 0.195554 0.0362249 0.0727718 0.00885696 0.00704046 0.00872459 0.0167605 0.00873025 0.0380633 0.0128174 0.0901237 0.0135345 0.0528644
98 3 O 1.83626 6.28124 3.22636 -1.2 0.0142991 0.0198482 0.0158692 0.0351764 0.0161341 0.0692356 0.0412154 0.201062 0.0423684 0.0686848 0.00637359 0.00720767 0.00645462 0.0199498 0.00573029 0.0344261 0.0141453 0.0909913 0.0162772 0.0497517
99 1 Mg 5.15145 9.09147 2.29189 1.2 0.00697571 0.106791 0.00561922 0.0607106 0.00932707 0.270674 0.0220086 0.4105 0.0209907 0.269198 0.00326935 0.00811778 0.00479223 0.0262806 0.00313662 0.0324429 0.00564449 0.0999013 0.00704816 0.0566849
100 1 Mg 7.90467 7.60118 2.29984 1.2 0.00230751 0.104457 0.0176597 0.0577913 0.0174372 0.269816 0.0362157 0.412873 0.0243782 0.270869 0.00336373 0.00876442 0.00727185 0.0221873 0.0058093 0.0278787 0.0142944 0.101077 0.0142142 0.0501405
101 2 Si 6.08927 7.56939 4.3799 2.4 0.0602595 0.117212 0.0672596 0.416881 0.118422 0.431175 0.1186 0.308493 0.109957 0.344668 0.00613917 0.00531199 0.00691201 0.0190043 0.00842344 0.0342642 0.0115605 0.0958767 0.013277 0.0523366
102 3 O 6.01604 7.57127 5.89114 -1.2 0.00385936 0.010629 0.00609012 0.0505567 0.0109243 0.0579646 0.00675276 0.202151 0.0225264 0.0739132 0.00508343 0.00660505 0.00597739 0.0206604 0.0060411 0.0241836 0.0122086 0.0966372 0.00935449 0.0500089
103 3 O -0.467184 7.4579 3.48912 -1.2 0.0191327 0.0210012 0.0122958 0.0358152 0.0121019 0.0773567 0.0450187 0.200346 0.0445639 0.0753903 0.00819777 0.00735424 0.00448646 0.0192162 0.00633755 0.0335802 0.0143372 0.0960584 0.0117866 0.0572351
104 3 O 6.79565 8.83639 3.63075 -1.2 0.0144648 0.0174289 0.0136852 0.0454132 0.0141419 0.0660359 0.0193707 0.202925 0.0333478 0.069214 0.00632039 0.00761111 0.00514468 0.0210377 0.00579658 0.0312496 0.0120046 0.0921776 0.0172247 0.0519437
105 1 Mg 4.94625 12.0034 2.18981 1.2 0.00534957 0.108321 0.0049139 0.0674093 0.00854802 0.267957 0.0177282 0.411227 0.016229 0.271765 0.00283553 0.00877964 0.00261184 0.0271104 0.00466123 0.0303559 0.00503294 0.0986204 0.00774236 0.0547445
106 3 O 6.84987 6.28484 3.60893 -1.2 0.0179501 0.0119823 0.0166711 0.0369625 0.0155493 0.068171 0.0214099 0.198984 0.0402095 0.0738657 0.00695386 0.00462063 0.00720404 0.0197592 0.00722465 0.0320821 0.0120442 0.0920595 0.0188744 0.0531638
107 1 Mg 2.20974 10.3914 2.53793 1.2 0.00517307 0.112798 0.0185843 0.0561467 0.0202901 0.273163 0.0348901 0.411349 0.026114 0.271925 0.00595744 0.00744667 0.0057708 0.019561 0.00531335 0.0282719 0.00855086 0.100665 0.0116905 0.04987
108 2 Si 3.98616 10.525 0.192042 2.4 0.0421244 0.142051 0.0815391 0.428547 0.125871 0.433673 0.115102 0.314758 0.117736 0.353985 0.00423444 0.0109054 0.00649352 0.0256285 0.00921424 0.0342597 0.0116565 0.0932668 0.0133011 0.0556596
109 3 O 4.02942 10.5079 -1.32186 -1.2 0.00231536 0.0146686 0.0084324 0.0630114 0.00726553 0.0512731 0.0296821 0.201821 0.032677 0.0655175 0.00508454 0.0114647 0.0061228 0.0288525 0.00420108 0.0239848 0.0117642 0.0977884 0.0127156 0.0544932
110 3 O 10.7807 10.7199 1.26485 -1.2 0.0101568 0.025472 0.0149326 0.0429288 0.0121208 0.0742749 0.0500152 0.211105 0.0472233 0.0685865 0.00246687 0.013393 0.00732205 0.022663 0.00711372 0.0316859 0.0152453 0.0930399 0.0153685 0.0583218
111 3 O 3.44849 11.8389 0.929307 -1.2 0.00578077 0.00658015 0.0103412 0.0442906 0.0120882 0.0641221 0.0365833 0.200985 0.0373068 0.0641376 0.00145106 0.00681071 0.00507948 0.0219148 0.00739047 0.0298802 0.0112725 0.0911568 0.0141033 0.0546227
112 3 O 3.23437 9.27945 0.962863 -1.2 0.00605142 0.00850043 0.0122736 0.0463374 0.0130379 0.0660415 0.0220094 0.199604 0.0346655 0.0623618 0.00519045 0.0100794 0.00611933 0.0218788 0.00623235 0.0342833 0.0107271 0.0924015 0.0147459 0.0528481
113 1 Mg 10.0754 5.97031 -0.0240765 1.2 0.00420961 0.0982502 0.00915533 0.052983 0.019632 0.279661 0.0292821 0.402793 0.022915 0.27196 0.00406707 0.00929581 0.00674387 0.0246418 0.00362416 0.0325356 0.00836877 0.101346 0.00739416 0.051653
114 1 Mg 17.5676 10.4765 4.75478 1.2 0.00679857 0.110546 0.0170151 0.0567925 0.0159113 0.264894 0.0368583 0.409864 0.0196499 0.276186 0.0047526 0.0124843 0.00559063 0.0174391 0.00607564 0.0286247 0.0104487 0.101569 0.0143058 0.0473385
115 2 Si 19.4162 10.342 2.02393 2.4 0.0618473 0.126913 0.0769871 0.404537 0.137523 0.445891 0.119727 0.291261 0.111749 0.346126 0.00611732 0.00980812 0.00574544 0.02124 0.0100115 0.0377459 0.0116293 0.0934806 0.0164755 0.0546992
116 3 O 19.3909 10.3565 3.60853 -1.2 0.0137091 0.0131386 0.0133171 0.050582 0.0114931 0.0556352 0.0303857 0.203417 0.0357627 0.0744219 0.00569236 0.0101463 0.0076007 0.0244843 0.00503647 0.0250185 0.0103505 0.0989987 0.0159269 0.0508256
117 3 O 15.8832 10.4718 0.939593 -1.2 0.0196832 0.0201305 0.0129377 0.0343117 0.012102 0.0792677 0.0409125 0.206807 0.0500172 0.076503 0.00575922 0.00766716 0.00527331 0.0200163 0.00715244 0.0338702 0.0125538 0.0930359 0.0174274 0.0561036
118 3 O 18.7852 11.7077 1.38929 -1.2 0.0189389 0.0161231 0.014611 0.0336985 0.0123244 0.0711614 0.0367681 0.202448 0.0503808 0.0691773 0.00850993 0.0085844 0.00708983 0.0175955 0.00483329 0.0349185 0.0118072 0.0895697 0.0194463 0.0491264
119 1 Mg 10.3896 9.08757 -0.135876 1.2 0.00758587 0.106421 0.00811295 0.0641143 0.0114974 0.266455 0.0176971 0.414094 0.0212756 0.274022 0.00330339 0.0112008 0.00463131 0.0240321 0.00416927 0.0361301 0.00593879 0.102649 0.00935972 0.0514138
120 3 O 18.828 9.08172 1.35404 -1.2 0.0098884 0.0126564 0.0170574 0.0326706 0.0200959 0.078011 0.0286483 0.205147 0.0408299 0.0700502 0.00465201 0.00855658 0.0074621 0.015869 0.0103276 0.0346939 0.0100066 0.0900748 0.0171277 0.0516018
121 1 Mg 13.0362 7.36768 0.088161 1.2 0.00928771 0.108943 0.0169888 0.0556933 0.0172007 0.276306 0.0395634 0.410246 0.023196 0.269858 0.00658313 0.0120529 0.00538203 0.0174099 0.00635577 0.0304167 0.0129817 0.102241 0.0146159 0.0478387
122 2 Si 11.2318 7.52127 2.74279 2.4 0.0202232 0.117461 0.0548736 0.403419 0.0842547 0.437884 0.101107 0.29467 0.11179 0.337619 0.0022243 0.00822291 0.00696591 0.0186376 0.00922893 0.0367732 0.00984714 0.0955756 0.0159562 0.0503177
123 3 O 11.305 7.4157 1.16884 -1.2 0.0081142 0.020857 0.0105563 0.0545376 0.0117875 0.062314 0.0124921 0.203586 0.0235786 0.0741709 0.00146229 0.0118055 0.00576379 0.0219971 0.00562212 0.0261106 0.00994925 0.0986428 0.0140148 0.0514498
124 3 O 14.8322 7.3767 3.69318 -1.2 0.00572323 0.0195676 0.00538297 0.0341996 0.00924996 0.0763704 0.0446627 0.205619 0.0395981 0.0734569 0.00209321 0.0111301 0.00388451 0.0173179 0.0058731 0.0330143 0.0152199 0.0963579 0.0135781 0.0558462