ITEM: TIMESTEP
0
ITEM: NUMBER OF ATOMS
3500
ITEM: BOX BOUNDS xy xz yz pp pp pp
0	33.745	10
0	50.9925	0
0	29.896	0
ITEM: ATOMS id type element xu yu zu q AtomicStrain[1] AtomicStrain[2] AtomicStrain[3] AtomicStrain[4] AtomicStrain[5] AtomicStrain[6] AtomicStrain[7] AtomicStrain[8]
1 1 Mg 0 0 0 0 0.0568353 0.20485 0 1.09066 -0.977196 -0.610553 1.65813 0.0872284
2 1 Mg 5.26228 2.82804 1.4948 0 0.170198 0.0684289 -2.22044e-16 0.503172 -0.992872 -0.470025 1.33883 0.0795425
3 2 Si 2.21155 0.958659 1.4948 0 0.520132 0.234789 0 0.98344 -1.18174 -0.472697 1.70861 0.251641
4 3 O 3.82058 0.937242 1.4948 0 0.240858 0.171045 -2.22044e-16 0.669248 -0.881943 -0.4516 1.29895 0.137301
5 3 O 1.94353 4.55873 1.4948 0 0.00183863 0.221365 0 0.977704 -0.699559 -0.461185 1.34797 0.0744012
6 3 O 1.64337 1.66236 0.196716 0 0.0621198 0.22139 8.88178e-16 0.920227 -1.03831 -0.648532 1.6223 0.0945032
7 1 Mg 33.745 50.9925 2.9896 0 -0.209092 0.0217331 -2.22044e-16 0.356404 -0.0913721 -0.151932 0.463772 -0.062453
8 3 O 1.64337 1.66236 2.79288 0 0.311518 0.0434028 4.4409e-16 0.42153 -0.502181 -0.200872 0.798014 0.118307
9 1 Mg 1.48672 7.37046 4.4844 0 0.0751718 0.00895084 0 0.240861 0.334493 0.133797 0.560304 0.0280409
10 2 Si 4.53745 9.23984 4.4844 0 0.0579847 -0.0101755 0 0.186171 0.13379 0.0535158 0.342501 0.0159364
11 3 O 2.92842 9.26126 4.4844 0 0.0751718 0.00895084 0 0.240861 0.334493 0.133797 0.560304 0.0280409
12 3 O 4.80547 5.63977 4.4844 0 0.0751718 0.00895084 4.4409e-16 0.240861 0.334493 0.133797 0.560304 0.0280409
13 3 O 5.10563 8.53614 3.18632 0 -0.0251309 0.00545859 0 0.19201 0.0191839 0.00767356 0.228023 -0.00655742
14 3 O 5.10563 8.53614 5.78248 0 0.0751718 0.00895084 0 0.240861 0.334493 0.133797 0.560304 0.0280409
15 1 Mg 3.3745 5.09925 2.9896 0 0.0506 0.0217331 0 0.262988 -0.37983 -0.151932 0.611097 0.0241111
16 1 Mg 2.77858 2.27121 4.4844 0 0.0751718 0.00895084 -2.22044e-16 0.240861 0.334493 0.133797 0.560304 0.0280409
17 2 Si 5.21005 4.14059 4.4844 0 7.33308e-05 -0.0101755 4.4409e-16 0.163006 0.13379 0.0535158 0.344425 -0.00336738
18 3 O 2.07848 4.16201 4.4844 0 0.0751718 0.00895084 0 0.240861 0.334493 0.133797 0.560304 0.0280409
19 3 O 3.53003 0.54052 4.4844 0 0.0751718 0.00895084 4.4409e-16 0.240861 0.334493 0.133797 0.560304 0.0280409
20 3 O 4.36587 3.43689 3.18632 0 0.0662152 0.00545859 0 0.228548 0.0191839 0.00767356 0.240779 0.0238913
21 1 Mg 3.3745 5.09925 0 0 -0.00864317 0.20485 0 0.663465 -0.963279 -0.610553 1.43376 0.0654022
22 3 O 4.36587 3.43689 5.78248 0 0.0751718 0.00895084 0 0.240861 0.334493 0.133797 0.560304 0.0280409
23 1 Mg 3.97042 7.92729 1.4948 0 0.225609 0.0684289 0 0.385766 -0.853057 -0.470025 1.19278 0.0980128
24 2 Si 1.53895 6.05791 1.4948 0 -0.231155 0.234789 4.4409e-16 0.826706 -0.532964 -0.472697 1.17066 0.00121109
25 3 O 4.67052 6.03649 1.4948 0 0.523751 0.171045 0 0.825528 -1.129 -0.4516 1.58347 0.231599
26 3 O 3.21897 9.65798 1.4948 0 0.606589 0.221365 0 0.984463 -1.15296 -0.461185 1.6895 0.275985
27 3 O 2.38313 6.76161 0.196716 0 0.416943 0.22139 4.4409e-16 1.43091 -1.17642 -0.648532 2.02912 0.212778
28 3 O 2.38313 6.76161 2.79288 0 0.00535093 0.0434028 4.4409e-16 0.299063 -0.502181 -0.200872 0.747528 0.0162513
29 1 Mg 4.749 0 0 0 0.0568353 0.20485 0 1.09066 -0.977196 -0.610553 1.65813 0.0872284
30 1 Mg 10.0113 2.82804 1.4948 0 0.170198 0.0684289 -4.4409e-16 0.503172 -0.992872 -0.470025 1.33883 0.0795425
31 2 Si 6.96055 0.958659 1.4948 0 0.520132 0.234789 0 0.98344 -1.18174 -0.472697 1.70861 0.251641
32 3 O 8.56958 0.937242 1.4948 0 0.240858 0.171045 -2.22044e-16 0.669248 -0.881943 -0.4516 1.29895 0.137301
33 3 O 6.69253 4.55873 1.4948 0 0.00183863 0.221365 0 0.977704 -0.699559 -0.461185 1.34797 0.0744012
34 3 O 6.39237 1.66236 0.196716 0 0.0621198 0.22139 4.4409e-16 0.920227 -1.03831 -0.648532 1.6223 0.0945032
35 1 Mg 14.749 50.9925 2.9896 0 -0.209092 0.0217331 0 0.356404 -0.0913721 -0.151932 0.463772 -0.062453
36 3 O 6.39237 1.66236 2.79288 0 0.311518 0.0434028 4.4409e-16 0.42153 -0.502181 -0.200872 0.798014 0.118307
37 1 Mg 6.23572 7.37046 4.4844 0 0.0751718 0.00895084 0 0.240861 0.334493 0.133797 0.560304 0.0280409
38 2 Si 9.28645 9.23984 4.4844 0 0.0579847 -0.0101755 0 0.186171 0.13379 0.0535158 0.342501 0.0159364
39 3 O 7.67742 9.26126 4.4844 0 0.0751718 0.00895084 4.4409e-16 0.240861 0.334493 0.133797 0.560304 0.0280409
40 3 O 9.55447 5.63977 4.4844 0 0.0751718 0.00895084 0 0.240861 0.334493 0.133797 0.560304 0.0280409
41 3 O 9.85463 8.53614 3.18632 0 -0.0251309 0.00545859 0 0.19201 0.0191839 0.00767356 0.228023 -0.00655742
42 3 O 9.85463 8.53614 5.78248 0 0.0751718 0.00895084 0 0.240861 0.334493 0.133797 0.560304 0.0280409
43 1 Mg 8.1235 5.09925 2.9896 0 0.0506 0.0217331 -2.22044e-16 0.262988 -0.37983 -0.151932 0.611097 0.0241111
44 1 Mg 7.52758 2.27121 4.4844 0 0.0751718 0.00895084 -2.22044e-16 0.240861 0.334493 0.133797 0.560304 0.0280409
45 2 Si 9.95905 4.14059 4.4844 0 7.33308e-05 -0.0101755 0 0.163006 0.13379 0.0535158 0.344425 -0.00336738
46 3 O 6.82748 4.16201 4.4844 0 0.0751718 0.00895084 4.4409e-16 0.240861 0.334493 0.133797 0.560304 0.0280409
47 3 O 8.27903 0.54052 4.4844 0 0.0751718 0.00895084 4.4409e-16 0.240861 0.334493 0.133797 0.560304 0.0280409
48 3 O 9.11487 3.43689 3.18632 0 0.0662152 0.00545859 0 0.228548 0.0191839 0.00767356 0.240779 0.0238913
49 1 Mg 8.1235 5.09925 0 0 -0.00864317 0.20485 -2.22044e-16 0.663465 -0.963279 -0.610553 1.43376 0.0654022
50 3 O 9.11487 3.43689 5.78248 0 0.0751718 0.00895084 4.4409e-16 0.240861 0.334493 0.133797 0.560304 0.0280409
51 1 Mg 8.71942 7.92729 1.4948 0 0.225609 0.0684289 0 0.385766 -0.853057 -0.470025 1.19278 0.0980128
52 2 Si 6.28795 6.05791 1.4948 0 -0.231155 0.234789 0 0.826706 -0.532964 -0.472697 1.17066 0.00121109
53 3 O 9.41952 6.03649 1.4948 0 0.523751 0.171045 0 0.825528 -1.129 -0.4516 1.58347 0.231599
54 3 O 7.96797 9.65798 1.4948 0 0.606589 0.221365 -2.22044e-16 0.984463 -1.15296 -0.461185 1.6895 0.275985
55 3 O 7.13213 6.76161 0.196716 0 0.416943 0.22139 8.88178e-16 1.43091 -1.17642 -0.648532 2.02912 0.212778
56 3 O 7.13213 6.76161 2.79288 0 0.00535093 0.0434028 4.4409e-16 0.299063 -0.502181 -0.200872 0.747528 0.0162513
57 1 Mg 9.498 0 0 0 0.0568353 0.20485 0 1.09066 -0.977196 -0.610553 1.65813 0.0872284
58 1 Mg 14.7603 2.82804 1.4948 0 0.170198 0.0684289 0 0.503172 -0.992872 -0.470025 1.33883 0.0795425
59 2 Si 11.7095 0.958659 1.4948 0 0.520132 0.234789 0 0.98344 -1.18174 -0.472697 1.70861 0.251641
60 3 O 13.3186 0.937242 1.4948 0 0.240858 0.171045 -2.22044e-16 0.669248 -0.881943 -0.4516 1.29895 0.137301
61 3 O 11.4415 4.55873 1.4948 0 0.00183863 0.221365 0 0.977704 -0.699559 -0.461185 1.34797 0.0744012
62 3 O 11.1414 1.66236 0.196716 0 0.0621198 0.22139 4.4409e-16 0.920227 -1.03831 -0.648532 1.6223 0.0945032
63 1 Mg 19.498 50.9925 2.9896 0 -0.209092 0.0217331 0 0.356404 -0.0913721 -0.151932 0.463772 -0.062453
64 3 O 11.1414 1.66236 2.79288 0 0.311518 0.0434028 0 0.42153 -0.502181 -0.200872 0.798014 0.118307
65 1 Mg 10.9847 7.37046 4.4844 0 0.0751718 0.00895084 0 0.240861 0.334493 0.133797 0.560304 0.0280409
66 2 Si 14.0355 9.23984 4.4844 0 0.0579847 -0.0101755 0 0.186171 0.13379 0.0535158 0.342501 0.0159364
67 3 O 12.4264 9.26126 4.4844 0 0.0751718 0.00895084 4.4409e-16 0.240861 0.334493 0.133797 0.560304 0.0280409
68 3 O 14.3035 5.63977 4.4844 0 0.0751718 0.00895084 0 0.240861 0.334493 0.133797 0.560304 0.0280409
69 3 O 14.6036 8.53614 3.18632 0 -0.0251309 0.00545859 4.4409e-16 0.19201 0.0191839 0.00767356 0.228023 -0.00655742
70 3 O 14.6036 8.53614 5.78248 0 0.0751718 0.00895084 4.4409e-16 0.240861 0.334493 0.133797 0.560304 0.0280409
71 1 Mg 12.8725 5.09925 2.9896 0 0.0506 0.0217331 -2.22044e-16 0.262988 -0.37983 -0.151932 0.611097 0.0241111
72 1 Mg 12.2766 2.27121 4.4844 0 0.0751718 0.00895084 0 0.240861 0.334493 0.133797 0.560304 0.0280409
73 2 Si 14.708 4.14059 4.4844 0 7.33308e-05 -0.0101755 0 0.163006 0.13379 0.0535158 0.344425 -0.00336738
74 3 O 11.5765 4.16201 4.4844 0 0.0751718 0.00895084 0 0.240861 0.334493 0.133797 0.560304 0.0280409
75 3 O 13.028 0.54052 4.4844 0 0.0751718 0.00895084 0 0.240861 0.334493 0.133797 0.560304 0.0280409
76 3 O 13.8639 3.43689 3.18632 0 0.0662152 0.00545859 4.4409e-16 0.228548 0.0191839 0.00767356 0.240779 0.0238913
77 1 Mg 12.8725 5.09925 0 0 -0.00864317 0.20485 -2.22044e-16 0.663465 -0.963279 -0.610553 1.43376 0.0654022
78 3 O 13.8639 3.43689 5.78248 0 0.0751718 0.00895084 4.4409e-16 0.240861 0.334493 0.133797 0.560304 0.0280409
79 1 Mg 13.4684 7.92729 1.4948 0 0.225609 0.0684289 -4.4409e-16 0.385766 -0.853057 -0.470025 1.19278 0.0980128
80 2 Si 11.037 6.05791 1.4948 0 -0.231155 0.234789 4.4409e-16 0.826706 -0.532964 -0.472697 1.17066 0.00121109
81 3 O 14.1685 6.03649 1.4948 0 0.523751 0.171045 4.4409e-16 0.825528 -1.129 -0.4516 1.58347 0.231599
82 3 O 12.717 9.65798 1.4948 0 0.606589 0.221365 -2.22044e-16 0.984463 -1.15296 -0.461185 1.6895 0.275985
83 3 O 11.8811 6.76161 0.196716 0 0.416943 0.22139 4.4409e-16 1.43091 -1.17642 -0.648532 2.02912 0.212778
84 3 O 11.8811 6.76161 2.79288 0 0.00535093 0.0434028 0 0.299063 -0.502181 -0.200872 0.747528 0.0162513
85 1 Mg 14.247 0 0 0 0.0568353 0.20485 0 1.09066 -0.977196 -0.610553 1.65813 0.0872284
86 1 Mg 19.5093 2.82804 1.4948 0 0.170198 0.0684289 0 0.503172 -0.992872 -0.470025 1.33883 0.0795425
87 2 Si 16.4585 0.958659 1.4948 0 0.520132 0.234789 -4.4409e-16 0.98344 -1.18174 -0.472697 1.70861 0.251641
88 3 O 18.0676 0.937242 1.4948 0 0.240858 0.171045 4.4409e-16 0.669248 -0.881943 -0.4516 1.29895 0.137301
89 3 O 16.1905 4.55873 1.4948 0 0.00183863 0.221365 4.4409e-16 0.977704 -0.699559 -0.461185 1.34797 0.0744012
90 3 O 15.8904 1.66236 0.196716 0 0.0621198 0.22139 4.4409e-16 0.920227 -1.03831 -0.648532 1.6223 0.0945032
91 1 Mg 24.247 50.9925 2.9896 0 -0.209092 0.0217331 0 0.356404 -0.0913721 -0.151932 0.463772 -0.062453
92 3 O 15.8904 1.66236 2.79288 0 0.311518 0.0434028 0 0.42153 -0.502181 -0.200872 0.798014 0.118307
93 1 Mg 15.7337 7.37046 4.4844 0 0.0751718 0.00895084 4.4409e-16 0.240861 0.334493 0.133797 0.560304 0.0280409
94 2 Si 18.7845 9.23984 4.4844 0 0.0579847 -0.0101755 0 0.186171 0.13379 0.0535158 0.342501 0.0159364
95 3 O 17.1754 9.26126 4.4844 0 0.0751718 0.00895084 0 0.240861 0.334493 0.133797 0.560304 0.0280409
96 3 O 19.0525 5.63977 4.4844 0 0.0751718 0.00895084 0 0.240861 0.334493 0.133797 0.560304 0.0280409
97 3 O 19.3526 8.53614 3.18632 0 -0.0251309 0.00545859 0 0.19201 0.0191839 0.00767356 0.228023 -0.00655742
98 3 O 19.3526 8.53614 5.78248 0 0.0751718 0.00895084 0 0.240861 0.334493 0.133797 0.560304 0.0280409
99 1 Mg 17.6215 5.09925 2.9896 0 0.0506 0.0217331 -2.22044e-16 0.262988 -0.37983 -0.151932 0.611097 0.0241111
100 1 Mg 17.0256 2.27121 4.4844 0 0.0751718 0.00895084 -4.4409e-16 0.240861 0.334493 0.133797 0.560304 0.0280409
101 2 Si 19.457 4.14059 4.4844 0 7.33308e-05 -0.0101755 0 0.163006 0.13379 0.0535158 0.344425 -0.00336738
102 3 O 16.3255 4.16201 4.4844 0 0.0751718 0.00895084 0 0.240861 0.334493 0.133797 0.560304 0.0280409
103 3 O 17.777 0.54052 4.4844 0 0.0751718 0.00895084 0 0.240861 0.334493 0.133797 0.560304 0.0280409
104 3 O 18.6129 3.43689 3.18632 0 0.0662152 0.00545859 0 0.228548 0.0191839 0.00767356 0.240779 0.0238913
105 1 Mg 17.6215 5.09925 0 0 -0.00864317 0.20485 -2.22044e-16 0.663465 -0.963279 -0.610553 1.43376 0.0654022
106 3 O 18.6129 3.43689 5.78248 0 0.0751718 0.00895084 4.4409e-16 0.240861 0.334493 0.133797 0.560304 0.0280409
107 1 Mg 18.2174 7.92729 1.4948 0 0.225609 0.0684289 0 0.385766 -0.853057 -0.470025 1.19278 0.0980128
108 2 Si 15.786 6.05791 1.4948 0 -0.231155 0.234789 0 0.826706 -0.532964 -0.472697 1.17066 0.00121109
109 3 O 18.9175 6.03649 1.4948 0 0.523751 0.171045 0 0.825528 -1.129 -0.4516 1.58347 0.231599
110 3 O 17.466 9.65798 1.4948 0 0.606589 0.221365 0 0.984463 -1.15296 -0.461185 1.6895 0.275985
111 3 O 16.6301 6.76161 0.196716 0 0.416943 0.22139 4.4409e-16 1.43091 -1.17642 -0.648532 2.02912 0.212778
112 3 O 16.6301 6.76161 2.79288 0 0.00535093 0.0434028 0 0.299063 -0.502181 -0.200872 0.747528 0.0162513
113 1 Mg 18.996 0 0 0 0.0568353 0.20485 -2.22044e-16 1.09066 -0.977196 -0.610553 1.65813 0.0872284
114 1 Mg 24.2583 2.82804 1.4948 0 0.170198 0.0684289 0 0.503172 -0.992872 -0.470025 1.33883 0.0795425
115 2 Si 21.2075 0.958659 1.4948 0 0.520132 0.234789 -4.4409e-16 0.98344 -1.18174 -0.472697 1.70861 0.251641
116 3 O 22.8166 0.937242 1.4948 0 0.240858 0.171045 0 0.669248 -0.881943 -0.4516 1.29895 0.137301
117 3 O 20.9395 4.55873 1.4948 0 0.00183863 0.221365 0 0.977704 -0.699559 -0.461185 1.34797 0.0744012
118 3 O 20.6394 1.66236 0.196716 0 0.0621198 0.22139 4.4409e-16 0.920227 -1.03831 -0.648532 1.6223 0.0945032
119 1 Mg 28.996 50.9925 2.9896 0 -0.209092 0.0217331 0 0.356404 -0.0913721 -0.151932 0.463772 -0.062453
120 3 O 20.6394 1.66236 2.79288 0 0.311518 0.0434028 4.4409e-16 0.42153 -0.502181 -0.200872 0.798014 0.118307
121 1 Mg 20.4827 7.37046 4.4844 0 0.0751718 0.00895084 0 0.240861 0.334493 0.133797 0.560304 0.0280409
122 2 Si 23.5335 9.23984 4.4844 0 0.0579847 -0.0101755 0 0.186171 0.13379 0.0535158 0.342501 0.0159364
123 3 O 21.9244 9.26126 4.4844 0 0.0751718 0.00895084 4.4409e-16 0.240861 0.334493 0.133797 0.560304 0.0280409
124 3 O 23.8015 5.63977 4.4844 0 0.0751718 0.00895084 4.4409e-16 0.240861 0.334493 0.133797 0.560304 0.0280409
125 3 O 24.1016 8.53614 3.18632 0 -0.0251309 0.00545859 4.4409e-16 0.19201 0.0191839 0.00767356 0.228023 -0.00655742
126 3 O 24.1016 8.53614 5.78248 0 0.0751718 0.00895084 0 0.240861 0.334493 0.133797 0.560304 0.0280409
127 1 Mg 22.3705 5.09925 2.9896 0 0.0506 0.0217331 0 0.262988 -0.37983 -0.151932 0.611097 0.0241111
128 1 Mg 21.7746 2.27121 4.4844 0 0.0751718 0.00895084 0 0.240861 0.334493 0.133797 0.560304 0.0280409
129 2 Si 24.206 4.14059 4.4844 0 7.33308e-05 -0.0101755 0 0.163006 0.13379 0.0535158 0.344425 -0.00336738
130 3 O 21.0745 4.16201 4.4844 0 0.0751718 0.00895084 4.4409e-16 0.240861 0.334493 0.133797 0.560304 0.0280409
131 3 O 22.526 0.54052 4.4844 0 0.0751718 0.00895084 0 0.240861 0.334493 0.133797 0.560304 0.0280409
132 3 O 23.3619 3.43689 3.18632 0 0.0662152 0.00545859 4.4409e-16 0.228548 0.0191839 0.00767356 0.240779 0.0238913
133 1 Mg 22.3705 5.09925 0 0 -0.00864317 0.20485 0 0.663465 -0.963279 -0.610553 1.43376 0.0654022
134 3 O 23.3619 3.43689 5.78248 0 0.0751718 0.00895084 4.4409e-16 0.240861 0.334493 0.133797 0.560304 0.0280409
135 1 Mg 22.9664 7.92729 1.4948 0 0.225609 0.0684289 0 0.385766 -0.853057 -0.470025 1.19278 0.0980128
136 2 Si 20.535 6.05791 1.4948 0 -0.231155 0.234789 4.4409e-16 0.826706 -0.532964 -0.472697 1.17066 0.00121109
137 3 O 23.6665 6.03649 1.4948 0 0.523751 0.171045 0 0.825528 -1.129 -0.4516 1.58347 0.231599
138 3 O 22.215 9.65798 1.4948 0 0.606589 0.221365 0 0.984463 -1.15296 -0.461185 1.6895 0.275985
139 3 O 21.3791 6.76161 0.196716 0 0.416943 0.22139 8.88178e-16 1.43091 -1.17642 -0.648532 2.02912 0.212778
140 3 O 21.3791 6.76161 2.79288 0 0.00535093 0.0434028 4.4409e-16 0.299063 -0.502181 -0.200872 0.747528 0.0162513
141 1 Mg 25.745 10.1985 0 0 0.0568353 0.20485 0 1.09066 -0.977196 -0.610553 1.65813 0.0872284
142 1 Mg 7.26228 13.0265 1.4948 0 0.170198 0.0684289 -2.22044e-16 0.503172 -0.992872 -0.470025 1.33883 0.0795425
143 2 Si 4.21155 11.1572 1.4948 0 0.520132 0.234789 4.4409e-16 0.98344 -1.18174 -0.472697 1.70861 0.251641
144 3 O 5.82058 11.1357 1.4948 0 0.240858 0.171045 0 0.669248 -0.881943 -0.4516 1.29895 0.137301
145 3 O 3.94353 14.7572 1.4948 0 0.00183863 0.221365 0 0.977704 -0.699559 -0.461185 1.34797 0.0744012
146 3 O 3.64337 11.8609 0.196716 0 0.0621198 0.22139 8.88178e-16 0.920227 -1.03831 -0.648532 1.6223 0.0945032
147 1 Mg 25.745 10.1985 2.9896 0 -0.209092 0.0217331 0 0.356404 -0.0913721 -0.151932 0.463772 -0.062453
148 3 O 3.64337 11.8609 2.79288 0 0.311518 0.0434028 4.4409e-16 0.42153 -0.502181 -0.200872 0.798014 0.118307
149 1 Mg 3.48672 17.569 4.4844 0 0.0751718 0.00895084 -2.22044e-16 0.240861 0.334493 0.133797 0.560304 0.0280409
150 2 Si 6.53745 19.4383 4.4844 0 0.0579847 -0.0101755 0 0.186171 0.13379 0.0535158 0.342501 0.0159364
151 3 O 4.92842 19.4598 4.4844 0 0.0751718 0.00895084 0 0.240861 0.334493 0.133797 0.560304 0.0280409
152 3 O 6.80547 15.8383 4.4844 0 0.0751718 0.00895084 0 0.240861 0.334493 0.133797 0.560304 0.0280409
153 3 O 7.10563 18.7346 3.18632 0 -0.0251309 0.00545859 0 0.19201 0.0191839 0.00767356 0.228023 -0.00655742
154 3 O 7.10563 18.7346 5.78248 0 0.0751718 0.00895084 0 0.240861 0.334493 0.133797 0.560304 0.0280409
155 1 Mg 5.3745 15.2978 2.9896 0 0.0506 0.0217331 0 0.262988 -0.37983 -0.151932 0.611097 0.0241111
156 1 Mg 4.77858 12.4697 4.4844 0 0.0751718 0.00895084 -2.22044e-16 0.240861 0.334493 0.133797 0.560304 0.0280409
157 2 Si 7.21005 14.3391 4.4844 0 7.33308e-05 -0.0101755 4.4409e-16 0.163006 0.13379 0.0535158 0.344425 -0.00336738
158 3 O 4.07848 14.3605 4.4844 0 0.0751718 0.00895084 0 0.240861 0.334493 0.133797 0.560304 0.0280409
159 3 O 5.53003 10.739 4.4844 0 0.0751718 0.00895084 4.4409e-16 0.240861 0.334493 0.133797 0.560304 0.0280409
160 3 O 6.36587 13.6354 3.18632 0 0.0662152 0.00545859 0 0.228548 0.0191839 0.00767356 0.240779 0.0238913
161 1 Mg 5.3745 15.2978 0 0 -0.00864317 0.20485 0 0.663465 -0.963279 -0.610553 1.43376 0.0654022
162 3 O 6.36587 13.6354 5.78248 0 0.0751718 0.00895084 4.4409e-16 0.240861 0.334493 0.133797 0.560304 0.0280409
163 1 Mg 5.97042 18.1258 1.4948 0 0.225609 0.0684289 4.4409e-16 0.385766 -0.853057 -0.470025 1.19278 0.0980128
164 2 Si 3.53895 16.2564 1.4948 0 -0.231155 0.234789 0 0.826706 -0.532964 -0.472697 1.17066 0.00121109
165 3 O 6.67052 16.235 1.4948 0 0.523751 0.171045 0 0.825528 -1.129 -0.4516 1.58347 0.231599
166 3 O 5.21897 19.8565 1.4948 0 0.606589 0.221365 0 0.984463 -1.15296 -0.461185 1.6895 0.275985
167 3 O 4.38313 16.9601 0.196716 0 0.416943 0.22139 4.4409e-16 1.43091 -1.17642 -0.648532 2.02912 0.212778
168 3 O 4.38313 16.9601 2.79288 0 0.00535093 0.0434028 4.4409e-16 0.299063 -0.502181 -0.200872 0.747528 0.0162513
169 1 Mg 6.749 10.1985 0 0 0.0568353 0.20485 -2.22044e-16 1.09066 -0.977196 -0.610553 1.65813 0.0872284
170 1 Mg 12.0113 13.0265 1.4948 0 0.170198 0.0684289 -4.4409e-16 0.503172 -0.992872 -0.470025 1.33883 0.0795425
171 2 Si 8.96055 11.1572 1.4948 0 0.520132 0.234789 4.4409e-16 0.98344 -1.18174 -0.472697 1.70861 0.251641
172 3 O 10.5696 11.1357 1.4948 0 0.240858 0.171045 0 0.669248 -0.881943 -0.4516 1.29895 0.137301
173 3 O 8.69253 14.7572 1.4948 0 0.00183863 0.221365 0 0.977704 -0.699559 -0.461185 1.34797 0.0744012
174 3 O 8.39237 11.8609 0.196716 0 0.0621198 0.22139 4.4409e-16 0.920227 -1.03831 -0.648532 1.6223 0.0945032
175 1 Mg 6.749 10.1985 2.9896 0 -0.209092 0.0217331 -2.22044e-16 0.356404 -0.0913721 -0.151932 0.463772 -0.062453
176 3 O 8.39237 11.8609 2.79288 0 0.311518 0.0434028 4.4409e-16 0.42153 -0.502181 -0.200872 0.798014 0.118307
177 1 Mg 8.23572 17.569 4.4844 0 0.0751718 0.00895084 0 0.240861 0.334493 0.133797 0.560304 0.0280409
178 2 Si 11.2865 19.4383 4.4844 0 0.0579847 -0.0101755 0 0.186171 0.13379 0.0535158 0.342501 0.0159364
179 3 O 9.67742 19.4598 4.4844 0 0.0751718 0.00895084 0 0.240861 0.334493 0.133797 0.560304 0.0280409
180 3 O 11.5545 15.8383 4.4844 0 0.0751718 0.00895084 0 0.240861 0.334493 0.133797 0.560304 0.0280409
181 3 O 11.8546 18.7346 3.18632 0 -0.0251309 0.00545859 0 0.19201 0.0191839 0.00767356 0.228023 -0.00655742
182 3 O 11.8546 18.7346 5.78248 0 0.0751718 0.00895084 0 0.240861 0.334493 0.133797 0.560304 0.0280409
183 1 Mg 10.1235 15.2978 2.9896 0 0.0506 0.0217331 0 0.262988 -0.37983 -0.151932 0.611097 0.0241111
184 1 Mg 9.52758 12.4697 4.4844 0 0.0751718 0.00895084 0 0.240861 0.334493 0.133797 0.560304 0.0280409
185 2 Si 11.959 14.3391 4.4844 0 7.33308e-05 -0.0101755 0 0.163006 0.13379 0.0535158 0.344425 -0.00336738
186 3 O 8.82748 14.3605 4.4844 0 0.0751718 0.00895084 0 0.240861 0.334493 0.133797 0.560304 0.0280409
187 3 O 10.279 10.739 4.4844 0 0.0751718 0.00895084 0 0.240861 0.334493 0.133797 0.560304 0.0280409
188 3 O 11.1149 13.6354 3.18632 0 0.0662152 0.00545859 0 0.228548 0.0191839 0.00767356 0.240779 0.0238913
189 1 Mg 10.1235 15.2978 0 0 -0.00864317 0.20485 -2.22044e-16 0.663465 -0.963279 -0.610553 1.43376 0.0654022
190 3 O 11.1149 13.6354 5.78248 0 0.0751718 0.00895084 4.4409e-16 0.240861 0.334493 0.133797 0.560304 0.0280409
191 1 Mg 10.7194 18.1258 1.4948 0 0.225609 0.0684289 0 0.385766 -0.853057 -0.470025 1.19278 0.0980128
192 2 Si 8.28795 16.2564 1.4948 0 -0.231155 0.234789 4.4409e-16 0.826706 -0.532964 -0.472697 1.17066 0.00121109
193 3 O 11.4195 16.235 1.4948 0 0.523751 0.171045 -2.22044e-16 0.825528 -1.129 -0.4516 1.58347 0.231599
194 3 O 9.96797 19.8565 1.4948 0 0.606589 0.221365 0 0.984463 -1.15296 -0.461185 1.6895 0.275985
195 3 O 9.13213 16.9601 0.196716 0 0.416943 0.22139 8.88178e-16 1.43091 -1.17642 -0.648532 2.02912 0.212778
196 3 O 9.13213 16.9601 2.79288 0 0.00535093 0.0434028 4.4409e-16 0.299063 -0.502181 -0.200872 0.747528 0.0162513
197 1 Mg 11.498 10.1985 0 0 0.0568353 0.20485 -2.22044e-16 1.09066 -0.977196 -0.610553 1.65813 0.0872284
198 1 Mg 16.7603 13.0265 1.4948 0 0.170198 0.0684289 -4.4409e-16 0.503172 -0.992872 -0.470025 1.33883 0.0795425
199 2 Si 13.7095 11.1572 1.4948 0 0.520132 0.234789 0 0.98344 -1.18174 -0.472697 1.70861 0.251641
200 3 O 15.3186 11.1357 1.4948 0 0.240858 0.171045 0 0.669248 -0.881943 -0.4516 1.29895 0.137301
201 3 O 13.4415 14.7572 1.4948 0 0.00183863 0.221365 0 0.977704 -0.699559 -0.461185 1.34797 0.0744012
202 3 O 13.1414 11.8609 0.196716 0 0.0621198 0.22139 4.4409e-16 0.920227 -1.03831 -0.648532 1.6223 0.0945032
203 1 Mg 11.498 10.1985 2.9896 0 -0.209092 0.0217331 -2.22044e-16 0.356404 -0.0913721 -0.151932 0.463772 -0.062453
204 3 O 13.1414 11.8609 2.79288 0 0.311518 0.0434028 4.4409e-16 0.42153 -0.502181 -0.200872 0.798014 0.118307
205 1 Mg 12.9847 17.569 4.4844 0 0.0751718 0.00895084 0 0.240861 0.334493 0.133797 0.560304 0.0280409
206 2 Si 16.0355 19.4383 4.4844 0 0.0579847 -0.0101755 0 0.186171 0.13379 0.0535158 0.342501 0.0159364
207 3 O 14.4264 19.4598 4.4844 0 0.0751718 0.00895084 0 0.240861 0.334493 0.133797 0.560304 0.0280409
208 3 O 16.3035 15.8383 4.4844 0 0.0751718 0.00895084 0 0.240861 0.334493 0.133797 0.560304 0.0280409
209 3 O 16.6036 18.7346 3.18632 0 -0.0251309 0.00545859 4.4409e-16 0.19201 0.0191839 0.00767356 0.228023 -0.00655742
210 3 O 16.6036 18.7346 5.78248 0 0.0751718 0.00895084 4.4409e-16 0.240861 0.334493 0.133797 0.560304 0.0280409
211 1 Mg 14.8725 15.2978 2.9896 0 0.0506 0.0217331 0 0.262988 -0.37983 -0.151932 0.611097 0.0241111
212 1 Mg 14.2766 12.4697 4.4844 0 0.0751718 0.00895084 0 0.240861 0.334493 0.133797 0.560304 0.0280409
213 2 Si 16.708 14.3391 4.4844 0 7.33308e-05 -0.0101755 0 0.163006 0.13379 0.0535158 0.344425 -0.00336738
214 3 O 13.5765 14.3605 4.4844 0 0.0751718 0.00895084 0 0.240861 0.334493 0.133797 0.560304 0.0280409
215 3 O 15.028 10.739 4.4844 0 0.0751718 0.00895084 0 0.240861 0.334493 0.133797 0.560304 0.0280409
216 3 O 15.8639 13.6354 3.18632 0 0.0662152 0.00545859 4.4409e-16 0.228548 0.0191839 0.00767356 0.240779 0.0238913
217 1 Mg 14.8725 15.2978 0 0 -0.00864317 0.20485 0 0.663465 -0.963279 -0.610553 1.43376 0.0654022
218 3 O 15.8639 13.6354 5.78248 0 0.0751718 0.00895084 4.4409e-16 0.240861 0.334493 0.133797 0.560304 0.0280409
219 1 Mg 15.4684 18.1258 1.4948 0 0.225609 0.0684289 0 0.385766 -0.853057 -0.470025 1.19278 0.0980128
220 2 Si 13.037 16.2564 1.4948 0 -0.231155 0.234789 0 0.826706 -0.532964 -0.472697 1.17066 0.00121109
221 3 O 16.1685 16.235 1.4948 0 0.523751 0.171045 4.4409e-16 0.825528 -1.129 -0.4516 1.58347 0.231599
222 3 O 14.717 19.8565 1.4948 0 0.606589 0.221365 4.4409e-16 0.984463 -1.15296 -0.461185 1.6895 0.275985
223 3 O 13.8811 16.9601 0.196716 0 0.416943 0.22139 4.4409e-16 1.43091 -1.17642 -0.648532 2.02912 0.212778
224 3 O 13.8811 16.9601 2.79288 0 0.00535093 0.0434028 0 0.299063 -0.502181 -0.200872 0.747528 0.0162513
225 1 Mg 16.247 10.1985 0 0 0.0568353 0.20485 -2.22044e-16 1.09066 -0.977196 -0.610553 1.65813 0.0872284
226 1 Mg 21.5093 13.0265 1.4948 0 0.170198 0.0684289 -4.4409e-16 0.503172 -0.992872 -0.470025 1.33883 0.0795425
227 2 Si 18.4585 11.1572 1.4948 0 0.520132 0.234789 0 0.98344 -1.18174 -0.472697 1.70861 0.251641
228 3 O 20.0676 11.1357 1.4948 0 0.240858 0.171045 0 0.669248 -0.881943 -0.4516 1.29895 0.137301
229 3 O 18.1905 14.7572 1.4948 0 0.00183863 0.221365 4.4409e-16 0.977704 -0.699559 -0.461185 1.34797 0.0744012
230 3 O 17.8904 11.8609 0.196716 0 0.0621198 0.22139 4.4409e-16 0.920227 -1.03831 -0.648532 1.6223 0.0945032
231 1 Mg 16.247 10.1985 2.9896 0 -0.209092 0.0217331 -2.22044e-16 0.356404 -0.0913721 -0.151932 0.463772 -0.062453
232 3 O 17.8904 11.8609 2.79288 0 0.311518 0.0434028 4.4409e-16 0.42153 -0.502181 -0.200872 0.798014 0.118307
233 1 Mg 17.7337 17.569 4.4844 0 0.0751718 0.00895084 0 0.240861 0.334493 0.133797 0.560304 0.0280409
234 2 Si 20.7845 19.4383 4.4844 0 0.0579847 -0.0101755 0 0.186171 0.13379 0.0535158 0.342501 0.0159364
235 3 O 19.1754 19.4598 4.4844 0 0.0751718 0.00895084 -2.22044e-16 0.240861 0.334493 0.133797 0.560304 0.0280409
236 3 O 21.0525 15.8383 4.4844 0 0.0751718 0.00895084 0 0.240861 0.334493 0.133797 0.560304 0.0280409
237 3 O 21.3526 18.7346 3.18632 0 -0.0251309 0.00545859 0 0.19201 0.0191839 0.00767356 0.228023 -0.00655742
238 3 O 21.3526 18.7346 5.78248 0 0.0751718 0.00895084 0 0.240861 0.334493 0.133797 0.560304 0.0280409
239 1 Mg 19.6215 15.2978 2.9896 0 0.0506 0.0217331 0 0.262988 -0.37983 -0.151932 0.611097 0.0241111
240 1 Mg 19.0256 12.4697 4.4844 0 0.0751718 0.00895084 0 0.240861 0.334493 0.133797 0.560304 0.0280409
241 2 Si 21.457 14.3391 4.4844 0 7.33308e-05 -0.0101755 0 0.163006 0.13379 0.0535158 0.344425 -0.00336738
242 3 O 18.3255 14.3605 4.4844 0 0.0751718 0.00895084 0 0.240861 0.334493 0.133797 0.560304 0.0280409
243 3 O 19.777 10.739 4.4844 0 0.0751718 0.00895084 0 0.240861 0.334493 0.133797 0.560304 0.0280409
244 3 O 20.6129 13.6354 3.18632 0 0.0662152 0.00545859 0 0.228548 0.0191839 0.00767356 0.240779 0.0238913
245 1 Mg 19.6215 15.2978 0 0 -0.00864317 0.20485 -2.22044e-16 0.663465 -0.963279 -0.610553 1.43376 0.0654022
246 3 O 20.6129 13.6354 5.78248 0 0.0751718 0.00895084 4.4409e-16 0.240861 0.334493 0.133797 0.560304 0.0280409
247 1 Mg 20.2174 18.1258 1.4948 0 0.225609 0.0684289 0 0.385766 -0.853057 -0.470025 1.19278 0.0980128
248 2 Si 17.786 16.2564 1.4948 0 -0.231155 0.234789 0 0.826706 -0.532964 -0.472697 1.17066 0.00121109
249 3 O 20.9175 16.235 1.4948 0 0.523751 0.171045 0 0.825528 -1.129 -0.4516 1.58347 0.231599
250 3 O 19.466 19.8565 1.4948 0 0.606589 0.221365 0 0.984463 -1.15296 -0.461185 1.6895 0.275985
251 3 O 18.6301 16.9601 0.196716 0 0.416943 0.22139 4.4409e-16 1.43091 -1.17642 -0.648532 2.02912 0.212778
252 3 O 18.6301 16.9601 2.79288 0 0.00535093 0.0434028 0 0.299063 -0.502181 -0.200872 0.747528 0.0162513
253 1 Mg 20.996 10.1985 0 0 0.0568353 0.20485 0 1.09066 -0.977196 -0.610553 1.65813 0.0872284
254 1 Mg 26.2583 13.0265 1.4948 0 0.170198 0.0684289 0 0.503172 -0.992872 -0.470025 1.33883 0.0795425
255 2 Si 23.2075 11.1572 1.4948 0 0.520132 0.234789 0 0.98344 -1.18174 -0.472697 1.70861 0.251641
256 3 O 24.8166 11.1357 1.4948 0 0.240858 0.171045 4.4409e-16 0.669248 -0.881943 -0.4516 1.29895 0.137301
257 3 O 22.9395 14.7572 1.4948 0 0.00183863 0.221365 0 0.977704 -0.699559 -0.461185 1.34797 0.0744012
258 3 O 22.6394 11.8609 0.196716 0 0.0621198 0.22139 4.4409e-16 0.920227 -1.03831 -0.648532 1.6223 0.0945032
259 1 Mg 20.996 10.1985 2.9896 0 -0.209092 0.0217331 0 0.356404 -0.0913721 -0.151932 0.463772 -0.062453
260 3 O 22.6394 11.8609 2.79288 0 0.311518 0.0434028 4.4409e-16 0.42153 -0.502181 -0.200872 0.798014 0.118307
261 1 Mg 22.4827 17.569 4.4844 0 0.0751718 0.00895084 0 0.240861 0.334493 0.133797 0.560304 0.0280409
262 2 Si 25.5335 19.4383 4.4844 0 0.0579847 -0.0101755 0 0.186171 0.13379 0.0535158 0.342501 0.0159364
263 3 O 23.9244 19.4598 4.4844 0 0.0751718 0.00895084 4.4409e-16 0.240861 0.334493 0.133797 0.560304 0.0280409
264 3 O 25.8015 15.8383 4.4844 0 0.0751718 0.00895084 0 0.240861 0.334493 0.133797 0.560304 0.0280409
265 3 O 26.1016 18.7346 3.18632 0 -0.0251309 0.00545859 4.4409e-16 0.19201 0.0191839 0.00767356 0.228023 -0.00655742
266 3 O 26.1016 18.7346 5.78248 0 0.0751718 0.00895084 0 0.240861 0.334493 0.133797 0.560304 0.0280409
267 1 Mg 24.3705 15.2978 2.9896 0 0.0506 0.0217331 0 0.262988 -0.37983 -0.151932 0.611097 0.0241111
268 1 Mg 23.7746 12.4697 4.4844 0 0.0751718 0.00895084 -2.22044e-16 0.240861 0.334493 0.133797 0.560304 0.0280409
269 2 Si 26.206 14.3391 4.4844 0 7.33308e-05 -0.0101755 0 0.163006 0.13379 0.0535158 0.344425 -0.00336738
270 3 O 23.0745 14.3605 4.4844 0 0.0751718 0.00895084 4.4409e-16 0.240861 0.334493 0.133797 0.560304 0.0280409
271 3 O 24.526 10.739 4.4844 0 0.0751718 0.00895084 0 0.240861 0.334493 0.133797 0.560304 0.0280409
272 3 O 25.3619 13.6354 3.18632 0 0.0662152 0.00545859 4.4409e-16 0.228548 0.0191839 0.00767356 0.240779 0.0238913
273 1 Mg 24.3705 15.2978 0 0 -0.00864317 0.20485 0 0.663465 -0.963279 -0.610553 1.43376 0.0654022
274 3 O 25.3619 13.6354 5.78248 0 0.0751718 0.00895084 4.4409e-16 0.240861 0.334493 0.133797 0.560304 0.0280409
275 1 Mg 24.9664 18.1258 1.4948 0 0.225609 0.0684289 -4.4409e-16 0.385766 -0.853057 -0.470025 1.19278 0.0980128
276 2 Si 22.535 16.2564 1.4948 0 -0.231155 0.234789 0 0.826706 -0.532964 -0.472697 1.17066 0.00121109
277 3 O 25.6665 16.235 1.4948 0 0.523751 0.171045 0 0.825528 -1.129 -0.4516 1.58347 0.231599
278 3 O 24.215 19.8565 1.4948 0 0.606589 0.221365 4.4409e-16 0.984463 -1.15296 -0.461185 1.6895 0.275985
279 3 O 23.3791 16.9601 0.196716 0 0.416943 0.22139 8.88178e-16 1.43091 -1.17642 -0.648532 2.02912 0.212778
280 3 O 23.3791 16.9601 2.79288 0 0.00535093 0.0434028 4.4409e-16 0.299063 -0.502181 -0.200872 0.747528 0.0162513
281 1 Mg 27.745 20.397 0 0 0.0568353 0.20485 0 1.09066 -0.977196 -0.610553 1.65813 0.0872284
282 1 Mg 9.26228 23.225 1.4948 0 0.170198 0.0684289 -2.22044e-16 0.503172 -0.992872 -0.470025 1.33883 0.0795425
283 2 Si 6.21155 21.3557 1.4948 0 0.520132 0.234789 4.4409e-16 0.98344 -1.18174 -0.472697 1.70861 0.251641