 # Forsterite - Mg2 Si O4
  
        3500  atoms
           3  atom types
 
      0.000000000000      23.745000000000  xlo xhi
      0.000000000000      50.992500000000  ylo yhi
      0.000000000000      29.896000000000  zlo zhi
     10.000000000000       0.000000000000       0.000000000000  xy xz yz
 
Masses
 
            1   24.30500000             # Mg
            2   28.08500000             # Si
            3   15.99900000             # O
 
Atoms # charge
 
         1    1   0.000000        0.000000000000       0.000000000000       0.000000000000
         2    1   0.000000        5.262283700000       2.828044050000       1.494800000000
         3    2   0.000000        2.211548900000       0.958659000000       1.494800000000
         4    3   0.000000        3.820584200000       0.937242150000       1.494800000000
         5    3   0.000000        1.943529000000       4.558729500000       1.494800000000
         6    3   0.000000        1.643372600000       1.662355500000       0.196715680000
         7    1   0.000000       33.745000000000      50.992500000000       2.989600000000
         8    3   0.000000        1.643372600000       1.662355500000       2.792884320000
         9    1   0.000000        1.486716300000       7.370455950000       4.484400000000
        10    2   0.000000        4.537451100000       9.239841000000       4.484400000000
        11    3   0.000000        2.928415800000       9.261257850000       4.484400000000
        12    3   0.000000        4.805471000000       5.639770500000       4.484400000000
        13    3   0.000000        5.105627400000       8.536144500000       3.186315680000
        14    3   0.000000        5.105627400000       8.536144500000       5.782484320000
        15    1   0.000000        3.374500000000       5.099250000000       2.989600000000
        16    1   0.000000        2.778583700000       2.271205950000       4.484400000000
        17    2   0.000000        5.210048900000       4.140591000000       4.484400000000
        18    3   0.000000        2.078484200000       4.162007850000       4.484400000000
        19    3   0.000000        3.530029000000       0.540520500000       4.484400000000
        20    3   0.000000        4.365872600000       3.436894500000       3.186315680000
        21    1   0.000000        3.374500000000       5.099250000000       0.000000000000
        22    3   0.000000        4.365872600000       3.436894500000       5.782484320000
        23    1   0.000000        3.970416300000       7.927294050000       1.494800000000
        24    2   0.000000        1.538951100000       6.057909000000       1.494800000000
        25    3   0.000000        4.670515800000       6.036492150000       1.494800000000
        26    3   0.000000        3.218971000000       9.657979500000       1.494800000000
        27    3   0.000000        2.383127400000       6.761605500000       0.196715680000
        28    3   0.000000        2.383127400000       6.761605500000       2.792884320000
        29    1   0.000000        4.749000000000       0.000000000000       0.000000000000
        30    1   0.000000       10.011283700000       2.828044050000       1.494800000000
        31    2   0.000000        6.960548900000       0.958659000000       1.494800000000
        32    3   0.000000        8.569584200000       0.937242150000       1.494800000000
        33    3   0.000000        6.692529000000       4.558729500000       1.494800000000
        34    3   0.000000        6.392372600000       1.662355500000       0.196715680000
        35    1   0.000000       14.749000000000      50.992500000000       2.989600000000
        36    3   0.000000        6.392372600000       1.662355500000       2.792884320000
        37    1   0.000000        6.235716300000       7.370455950000       4.484400000000
        38    2   0.000000        9.286451100000       9.239841000000       4.484400000000
        39    3   0.000000        7.677415800000       9.261257850000       4.484400000000
        40    3   0.000000        9.554471000000       5.639770500000       4.484400000000
        41    3   0.000000        9.854627400000       8.536144500000       3.186315680000
        42    3   0.000000        9.854627400000       8.536144500000       5.782484320000
        43    1   0.000000        8.123500000000       5.099250000000       2.989600000000
        44    1   0.000000        7.527583700000       2.271205950000       4.484400000000
        45    2   0.000000        9.959048900000       4.140591000000       4.484400000000
        46    3   0.000000        6.827484200000       4.162007850000       4.484400000000
        47    3   0.000000        8.279029000000       0.540520500000       4.484400000000
        48    3   0.000000        9.114872600000       3.436894500000       3.186315680000
        49    1   0.000000        8.123500000000       5.099250000000       0.000000000000
        50    3   0.000000        9.114872600000       3.436894500000       5.782484320000
        51    1   0.000000        8.719416300000       7.927294050000       1.494800000000
        52    2   0.000000        6.287951100000       6.057909000000       1.494800000000
        53    3   0.000000        9.419515800000       6.036492150000       1.494800000000
        54    3   0.000000        7.967971000000       9.657979500000       1.494800000000
        55    3   0.000000        7.132127400000       6.761605500000       0.196715680000
        56    3   0.000000        7.132127400000       6.761605500000       2.792884320000
        57    1   0.000000        9.498000000000       0.000000000000       0.000000000000
        58    1   0.000000       14.760283700000       2.828044050000       1.494800000000
        59    2   0.000000       11.709548900000       0.958659000000       1.494800000000
        60    3   0.000000       13.318584200000       0.937242150000       1.494800000000
        61    3   0.000000       11.441529000000       4.558729500000       1.494800000000
        62    3   0.000000       11.141372600000       1.662355500000       0.196715680000
        63    1   0.000000       19.498000000000      50.992500000000       2.989600000000
        64    3   0.000000       11.141372600000       1.662355500000       2.792884320000
        65    1   0.000000       10.984716300000       7.370455950000       4.484400000000
        66    2   0.000000       14.035451100000       9.239841000000       4.484400000000
        67    3   0.000000       12.426415800000       9.261257850000       4.484400000000
        68    3   0.000000       14.303471000000       5.639770500000       4.484400000000
        69    3   0.000000       14.603627400000       8.536144500000       3.186315680000
        70    3   0.000000       14.603627400000       8.536144500000       5.782484320000
        71    1   0.000000       12.872500000000       5.099250000000       2.989600000000
        72    1   0.000000       12.276583700000       2.271205950000       4.484400000000
        73    2   0.000000       14.708048900000       4.140591000000       4.484400000000
        74    3   0.000000       11.576484200000       4.162007850000       4.484400000000
        75    3   0.000000       13.028029000000       0.540520500000       4.484400000000
        76    3   0.000000       13.863872600000       3.436894500000       3.186315680000
        77    1   0.000000       12.872500000000       5.099250000000       0.000000000000
        78    3   0.000000       13.863872600000       3.436894500000       5.782484320000
        79    1   0.000000       13.468416300000       7.927294050000       1.494800000000
        80    2   0.000000       11.036951100000       6.057909000000       1.494800000000
        81    3   0.000000       14.168515800000       6.036492150000       1.494800000000
        82    3   0.000000       12.716971000000       9.657979500000       1.494800000000
        83    3   0.000000       11.881127400000       6.761605500000       0.196715680000
        84    3   0.000000       11.881127400000       6.761605500000       2.792884320000
        85    1   0.000000       14.247000000000       0.000000000000       0.000000000000
        86    1   0.000000       19.509283700000       2.828044050000       1.494800000000
        87    2   0.000000       16.458548900000       0.958659000000       1.494800000000
        88    3   0.000000       18.067584200000       0.937242150000       1.494800000000
        89    3   0.000000       16.190529000000       4.558729500000       1.494800000000
        90    3   0.000000       15.890372600000       1.662355500000       0.196715680000
        91    1   0.000000       24.247000000000      50.992500000000       2.989600000000
        92    3   0.000000       15.890372600000       1.662355500000       2.792884320000
        93    1   0.000000       15.733716300000       7.370455950000       4.484400000000
        94    2   0.000000       18.784451100000       9.239841000000       4.484400000000
        95    3   0.000000       17.175415800000       9.261257850000       4.484400000000
        96    3   0.000000       19.052471000000       5.639770500000       4.484400000000
        97    3   0.000000       19.352627400000       8.536144500000       3.186315680000
        98    3   0.000000       19.352627400000       8.536144500000       5.782484320000
        99    1   0.000000       17.621500000000       5.099250000000       2.989600000000
       100    1   0.000000       17.025583700000       2.271205950000       4.484400000000
       101    2   0.000000       19.457048900000       4.140591000000       4.484400000000
       102    3   0.000000       16.325484200000       4.162007850000       4.484400000000
       103    3   0.000000       17.777029000000       0.540520500000       4.484400000000
       104    3   0.000000       18.612872600000       3.436894500000       3.186315680000
       105    1   0.000000       17.621500000000       5.099250000000       0.000000000000
       106    3   0.000000       18.612872600000       3.436894500000       5.782484320000
       107    1   0.000000       18.217416300000       7.927294050000       1.494800000000
       108    2   0.000000       15.785951100000       6.057909000000       1.494800000000
       109    3   0.000000       18.917515800000       6.036492150000       1.494800000000
       110    3   0.000000       17.465971000000       9.657979500000       1.494800000000
       111    3   0.000000       16.630127400000       6.761605500000       0.196715680000
       112    3   0.000000       16.630127400000       6.761605500000       2.792884320000
       113    1   0.000000       18.996000000000       0.000000000000       0.000000000000
       114    1   0.000000       24.258283700000       2.828044050000       1.494800000000
       115    2   0.000000       21.207548900000       0.958659000000       1.494800000000
       116    3   0.000000       22.816584200000       0.937242150000       1.494800000000
       117    3   0.000000       20.939529000000       4.558729500000       1.494800000000
       118    3   0.000000       20.639372600000       1.662355500000       0.196715680000
       119    1   0.000000       28.996000000000      50.992500000000       2.989600000000
       120    3   0.000000       20.639372600000       1.662355500000       2.792884320000
       121    1   0.000000       20.482716300000       7.370455950000       4.484400000000
       122    2   0.000000       23.533451100000       9.239841000000       4.484400000000
       123    3   0.000000       21.924415800000       9.261257850000       4.484400000000
       124    3   0.000000       23.801471000000       5.639770500000       4.484400000000
       125    3   0.000000       24.101627400000       8.536144500000       3.186315680000
       126    3   0.000000       24.101627400000       8.536144500000       5.782484320000
       127    1   0.000000       22.370500000000       5.099250000000       2.989600000000
       128    1   0.000000       21.774583700000       2.271205950000       4.484400000000
       129    2   0.000000       24.206048900000       4.140591000000       4.484400000000
       130    3   0.000000       21.074484200000       4.162007850000       4.484400000000
       131    3   0.000000       22.526029000000       0.540520500000       4.484400000000
       132    3   0.000000       23.361872600000       3.436894500000       3.186315680000
       133    1   0.000000       22.370500000000       5.099250000000       0.000000000000
       134    3   0.000000       23.361872600000       3.436894500000       5.782484320000
       135    1   0.000000       22.966416300000       7.927294050000       1.494800000000
       136    2   0.000000       20.534951100000       6.057909000000       1.494800000000
       137    3   0.000000       23.666515800000       6.036492150000       1.494800000000
       138    3   0.000000       22.214971000000       9.657979500000       1.494800000000
       139    3   0.000000       21.379127400000       6.761605500000       0.196715680000
       140    3   0.000000       21.379127400000       6.761605500000       2.792884320000
       141    1   0.000000       25.745000000000      10.198500000000       0.000000000000
       142    1   0.000000        7.262283700000      13.026544050000       1.494800000000
       143    2   0.000000        4.211548900000      11.157159000000       1.494800000000
       144    3   0.000000        5.820584200000      11.135742150000       1.494800000000
       145    3   0.000000        3.943529000000      14.757229500000       1.494800000000
       146    3   0.000000        3.643372600000      11.860855500000       0.196715680000
       147    1   0.000000       25.745000000000      10.198500000000       2.989600000000
       148    3   0.000000        3.643372600000      11.860855500000       2.792884320000
       149    1   0.000000        3.486716300000      17.568955950000       4.484400000000
       150    2   0.000000        6.537451100000      19.438341000000       4.484400000000
       151    3   0.000000        4.928415800000      19.459757850000       4.484400000000
       152    3   0.000000        6.805471000000      15.838270500000       4.484400000000
       153    3   0.000000        7.105627400000      18.734644500000       3.186315680000
       154    3   0.000000        7.105627400000      18.734644500000       5.782484320000
       155    1   0.000000        5.374500000000      15.297750000000       2.989600000000
       156    1   0.000000        4.778583700000      12.469705950000       4.484400000000
       157    2   0.000000        7.210048900000      14.339091000000       4.484400000000
       158    3   0.000000        4.078484200000      14.360507850000       4.484400000000
       159    3   0.000000        5.530029000000      10.739020500000       4.484400000000
       160    3   0.000000        6.365872600000      13.635394500000       3.186315680000
       161    1   0.000000        5.374500000000      15.297750000000       0.000000000000
       162    3   0.000000        6.365872600000      13.635394500000       5.782484320000
       163    1   0.000000        5.970416300000      18.125794050000       1.494800000000
       164    2   0.000000        3.538951100000      16.256409000000       1.494800000000
       165    3   0.000000        6.670515800000      16.234992150000       1.494800000000
       166    3   0.000000        5.218971000000      19.856479500000       1.494800000000
       167    3   0.000000        4.383127400000      16.960105500000       0.196715680000
       168    3   0.000000        4.383127400000      16.960105500000       2.792884320000
       169    1   0.000000        6.749000000000      10.198500000000       0.000000000000
       170    1   0.000000       12.011283700000      13.026544050000       1.494800000000
       171    2   0.000000        8.960548900000      11.157159000000       1.494800000000
       172    3   0.000000       10.569584200000      11.135742150000       1.494800000000
       173    3   0.000000        8.692529000000      14.757229500000       1.494800000000
       174    3   0.000000        8.392372600000      11.860855500000       0.196715680000
       175    1   0.000000        6.749000000000      10.198500000000       2.989600000000
       176    3   0.000000        8.392372600000      11.860855500000       2.792884320000
       177    1   0.000000        8.235716300000      17.568955950000       4.484400000000
       178    2   0.000000       11.286451100000      19.438341000000       4.484400000000
       179    3   0.000000        9.677415800000      19.459757850000       4.484400000000
       180    3   0.000000       11.554471000000      15.838270500000       4.484400000000
       181    3   0.000000       11.854627400000      18.734644500000       3.186315680000
       182    3   0.000000       11.854627400000      18.734644500000       5.782484320000
       183    1   0.000000       10.123500000000      15.297750000000       2.989600000000
       184    1   0.000000        9.527583700000      12.469705950000       4.484400000000
       185    2   0.000000       11.959048900000      14.339091000000       4.484400000000
       186    3   0.000000        8.827484200000      14.360507850000       4.484400000000
       187    3   0.000000       10.279029000000      10.739020500000       4.484400000000
       188    3   0.000000       11.114872600000      13.635394500000       3.186315680000
       189    1   0.000000       10.123500000000      15.297750000000       0.000000000000
       190    3   0.000000       11.114872600000      13.635394500000       5.782484320000
       191    1   0.000000       10.719416300000      18.125794050000       1.494800000000
       192    2   0.000000        8.287951100000      16.256409000000       1.494800000000
       193    3   0.000000       11.419515800000      16.234992150000       1.494800000000
       194    3   0.000000        9.967971000000      19.856479500000       1.494800000000
       195    3   0.000000        9.132127400000      16.960105500000       0.196715680000
       196    3   0.000000        9.132127400000      16.960105500000       2.792884320000
       197    1   0.000000       11.498000000000      10.198500000000       0.000000000000
       198    1   0.000000       16.760283700000      13.026544050000       1.494800000000
       199    2   0.000000       13.709548900000      11.157159000000       1.494800000000
       200    3   0.000000       15.318584200000      11.135742150000       1.494800000000
       201    3   0.000000       13.441529000000      14.757229500000       1.494800000000
       202    3   0.000000       13.141372600000      11.860855500000       0.196715680000
       203    1   0.000000       11.498000000000      10.198500000000       2.989600000000
       204    3   0.000000       13.141372600000      11.860855500000       2.792884320000
       205    1   0.000000       12.984716300000      17.568955950000       4.484400000000
       206    2   0.000000       16.035451100000      19.438341000000       4.484400000000
       207    3   0.000000       14.426415800000      19.459757850000       4.484400000000
       208    3   0.000000       16.303471000000      15.838270500000       4.484400000000
       209    3   0.000000       16.603627400000      18.734644500000       3.186315680000
       210    3   0.000000       16.603627400000      18.734644500000       5.782484320000
       211    1   0.000000       14.872500000000      15.297750000000       2.989600000000
       212    1   0.000000       14.276583700000      12.469705950000       4.484400000000
       213    2   0.000000       16.708048900000      14.339091000000       4.484400000000
       214    3   0.000000       13.576484200000      14.360507850000       4.484400000000
       215    3   0.000000       15.028029000000      10.739020500000       4.484400000000
       216    3   0.000000       15.863872600000      13.635394500000       3.186315680000
       217    1   0.000000       14.872500000000      15.297750000000       0.000000000000
       218    3   0.000000       15.863872600000      13.635394500000       5.782484320000
       219    1   0.000000       15.468416300000      18.125794050000       1.494800000000
       220    2   0.000000       13.036951100000      16.256409000000       1.494800000000
       221    3   0.000000       16.168515800000      16.234992150000       1.494800000000
       222    3   0.000000       14.716971000000      19.856479500000       1.494800000000
       223    3   0.000000       13.881127400000      16.960105500000       0.196715680000
       224    3   0.000000       13.881127400000      16.960105500000       2.792884320000
       225    1   0.000000       16.247000000000      10.198500000000       0.000000000000
       226    1   0.000000       21.509283700000      13.026544050000       1.494800000000
       227    2   0.000000       18.458548900000      11.157159000000       1.494800000000
       228    3   0.000000       20.067584200000      11.135742150000       1.494800000000
       229    3   0.000000       18.190529000000      14.757229500000       1.494800000000
       230    3   0.000000       17.890372600000      11.860855500000       0.196715680000
       231    1   0.000000       16.247000000000      10.198500000000       2.989600000000
       232    3   0.000000       17.890372600000      11.860855500000       2.792884320000
       233    1   0.000000       17.733716300000      17.568955950000       4.484400000000
       234    2   0.000000       20.784451100000      19.438341000000       4.484400000000
       235    3   0.000000       19.175415800000      19.459757850000       4.484400000000
       236    3   0.000000       21.052471000000      15.838270500000       4.484400000000
       237    3   0.000000       21.352627400000      18.734644500000       3.186315680000
       238    3   0.000000       21.352627400000      18.734644500000       5.782484320000
       239    1   0.000000       19.621500000000      15.297750000000       2.989600000000
       240    1   0.000000       19.025583700000      12.469705950000       4.484400000000
       241    2   0.000000       21.457048900000      14.339091000000       4.484400000000
       242    3   0.000000       18.325484200000      14.360507850000       4.484400000000
       243    3   0.000000       19.777029000000      10.739020500000       4.484400000000
       244    3   0.000000       20.612872600000      13.635394500000       3.186315680000
       245    1   0.000000       19.621500000000      15.297750000000       0.000000000000
       246    3   0.000000       20.612872600000      13.635394500000       5.782484320000
       247    1   0.000000       20.217416300000      18.125794050000       1.494800000000
       248    2   0.000000       17.785951100000      16.256409000000       1.494800000000
       249    3   0.000000       20.917515800000      16.234992150000       1.494800000000
       250    3   0.000000       19.465971000000      19.856479500000       1.494800000000
       251    3   0.000000       18.630127400000      16.960105500000       0.196715680000
       252    3   0.000000       18.630127400000      16.960105500000       2.792884320000
       253    1   0.000000       20.996000000000      10.198500000000       0.000000000000
       254    1   0.000000       26.258283700000      13.026544050000       1.494800000000
       255    2   0.000000       23.207548900000      11.157159000000       1.494800000000
       256    3   0.000000       24.816584200000      11.135742150000       1.494800000000
       257    3   0.000000       22.939529000000      14.757229500000       1.494800000000
       258    3   0.000000       22.639372600000      11.860855500000       0.196715680000
       259    1   0.000000       20.996000000000      10.198500000000       2.989600000000
       260    3   0.000000       22.639372600000      11.860855500000       2.792884320000
       261    1   0.000000       22.482716300000      17.568955950000       4.484400000000
       262    2   0.000000       25.533451100000      19.438341000000       4.484400000000
       263    3   0.000000       23.924415800000      19.459757850000       4.484400000000
       264    3   0.000000       25.801471000000      15.838270500000       4.484400000000
       265    3   0.000000       26.101627400000      18.734644500000       3.186315680000
       266    3   0.000000       26.101627400000      18.734644500000       5.782484320000
       267    1   0.000000       24.370500000000      15.297750000000       2.989600000000
       268    1   0.000000       23.774583700000      12.469705950000       4.484400000000
       269    2   0.000000       26.206048900000      14.339091000000       4.484400000000
       270    3   0.000000       23.074484200000      14.360507850000       4.484400000000
       271    3   0.000000       24.526029000000      10.739020500000       4.484400000000
       272    3   0.000000       25.361872600000      13.635394500000       3.186315680000
       273    1   0.000000       24.370500000000      15.297750000000       0.000000000000
       274    3   0.000000       25.361872600000      13.635394500000       5.782484320000
       275    1   0.000000       24.966416300000      18.125794050000       1.494800000000
       276    2   0.000000       22.534951100000      16.256409000000       1.494800000000
       277    3   0.000000       25.666515800000      16.234992150000       1.494800000000
       278    3   0.000000       24.214971000000      19.856479500000       1.494800000000
       279    3   0.000000       23.379127400000      16.960105500000       0.196715680000
       280    3   0.000000       23.379127400000      16.960105500000       2.792884320000
       281    1   0.000000       27.745000000000      20.397000000000       0.000000000000
       282    1   0.000000        9.262283700000      23.225044050000       1.494800000000
       283    2   0.000000        6.211548900000      21.355659000000       1.494800000000
       284    3   0.000000        7.820584200000      21.334242150000       1.494800000000
       285    3   0.000000        5.943529000000      24.955729500000       1.494800000000
       286    3   0.000000        5.643372600000      22.059355500000       0.196715680000
       287    1   0.000000       27.745000000000      20.397000000000       2.989600000000
       288    3   0.000000        5.643372600000      22.059355500000       2.792884320000
       289    1   0.000000        5.486716300000      27.767455950000       4.484400000000
       290    2   0.000000        8.537451100000      29.636841000000       4.484400000000
       291    3   0.000000        6.928415800000      29.658257850000       4.484400000000
       292    3   0.000000        8.805471000000      26.036770500000       4.484400000000
       293    3   0.000000        9.105627400000      28.933144500000       3.186315680000
       294    3   0.000000        9.105627400000      28.933144500000       5.782484320000
       295    1   0.000000        7.374500000000      25.496250000000       2.989600000000
       296    1   0.000000        6.778583700000      22.668205950000       4.484400000000
       297    2   0.000000        9.210048900000      24.537591000000       4.484400000000
       298    3   0.000000        6.078484200000      24.559007850000       4.484400000000
       299    3   0.000000        7.530029000000      20.937520500000       4.484400000000
       300    3   0.000000        8.365872600000      23.833894500000       3.186315680000
       301    1   0.000000        7.374500000000      25.496250000000       0.000000000000
       302    3   0.000000        8.365872600000      23.833894500000       5.782484320000
       303    1   0.000000        7.970416300000      28.324294050000       1.494800000000
       304    2   0.000000        5.538951100000      26.454909000000       1.494800000000
       305    3   0.000000        8.670515800000      26.433492150000       1.494800000000
       306    3   0.000000        7.218971000000      30.054979500000       1.494800000000
       307    3   0.000000        6.383127400000      27.158605500000       0.196715680000
       308    3   0.000000        6.383127400000      27.158605500000       2.792884320000
       309    1   0.000000        8.749000000000      20.397000000000       0.000000000000
       310    1   0.000000       14.011283700000      23.225044050000       1.494800000000
       311    2   0.000000       10.960548900000      21.355659000000       1.494800000000
       312    3   0.000000       12.569584200000      21.334242150000       1.494800000000
       313    3   0.000000       10.692529000000      24.955729500000       1.494800000000
       314    3   0.000000       10.392372600000      22.059355500000       0.196715680000
       315    1   0.000000        8.749000000000      20.397000000000       2.989600000000
       316    3   0.000000       10.392372600000      22.059355500000       2.792884320000
       317    1   0.000000       10.235716300000      27.767455950000       4.484400000000
       318    2   0.000000       13.286451100000      29.636841000000       4.484400000000
       319    3   0.000000       11.677415800000      29.658257850000       4.484400000000
       320    3   0.000000       13.554471000000      26.036770500000       4.484400000000
       321    3   0.000000       13.854627400000      28.933144500000       3.186315680000
       322    3   0.000000       13.854627400000      28.933144500000       5.782484320000
       323    1   0.000000       12.123500000000      25.496250000000       2.989600000000
       324    1   0.000000       11.527583700000      22.668205950000       4.484400000000