ITEM: TIMESTEP
0
ITEM: NUMBER OF ATOMS
3500
ITEM: BOX BOUNDS pp pp pp
0	23.745
0	50.9925
0	29.896
ITEM: ATOMS id type element xu yu zu q AtomicStrain[1] AtomicStrain[2] AtomicStrain[3] AtomicStrain[4] AtomicStrain[5] AtomicStrain[6] AtomicStrain[7] AtomicStrain[8]
1 1 Mg 0 0 0 0 0.0376063 0.20485 0 0.89455 -0.977196 -0.610553 1.46179 0.0808187
2 1 Mg 5.20768 3.02804 1.4948 0 0.150969 0.0684289 -1.11022e-16 0.307065 -0.992872 -0.470025 1.14249 0.0731328
3 2 Si 2.52355 1.15866 1.4948 0 0.500903 0.234789 0 0.787333 -1.18174 -0.472697 1.51227 0.245231
4 3 O 4.13678 1.13724 1.4948 0 0.221629 0.171045 -1.11022e-16 0.473141 -0.881943 -0.4516 1.10261 0.130891
5 3 O 1.54953 4.75873 1.4948 0 -0.0173904 0.221365 0 0.781597 -0.699559 -0.461185 1.15163 0.0679915
6 3 O 1.38317 1.68868 0.196716 0 0.0428908 0.22139 4.44089e-16 0.72412 -1.03831 -0.648532 1.42596 0.0880935
7 1 Mg 24.745 51.3925 2.9896 0 -0.228321 0.0217331 -1.11022e-16 0.160297 -0.0913721 -0.151932 0.267429 -0.0688627
8 3 O 2.25157 2.03604 2.79288 0 0.292289 0.0434028 2.22045e-16 0.225423 -0.502181 -0.200872 0.601671 0.111897
9 1 Mg 1.54132 7.97046 4.4844 0 0.0559428 0.00895084 0 0.0447542 0.334493 0.133797 0.363961 0.0216312
10 2 Si 4.22545 9.83984 4.4844 0 0.0387557 -0.0101755 0 -0.00993647 0.13379 0.0535158 0.146158 0.00952673
11 3 O 2.61222 9.86126 4.4844 0 0.0559428 0.00895084 0 0.0447542 0.334493 0.133797 0.363961 0.0216312
12 3 O 5.19947 6.23977 4.4844 0 0.0559428 0.00895084 2.22045e-16 0.0447542 0.334493 0.133797 0.363961 0.0216312
13 3 O 4.49743 8.96246 3.18632 0 -0.0443599 0.00545859 0 -0.00409751 0.0191839 0.00767356 0.0316801 -0.0129671
14 3 O 5.36583 9.30982 5.78248 0 0.0559428 0.00895084 0 0.0447542 0.334493 0.133797 0.363961 0.0216312
15 1 Mg 3.3745 5.49925 2.9896 0 0.031371 0.0217331 0 0.0668812 -0.37983 -0.151932 0.414754 0.0177014
16 1 Mg 3.83318 2.87121 4.4844 0 0.0559428 0.00895084 -1.11022e-16 0.0447542 0.334493 0.133797 0.363961 0.0216312
17 2 Si 5.89805 4.74059 4.4844 0 -0.0191557 -0.0101755 2.22045e-16 -0.033101 0.13379 0.0535158 0.148082 -0.00977706
18 3 O 2.76228 4.76201 4.4844 0 0.0559428 0.00895084 0 0.0447542 0.334493 0.133797 0.363961 0.0216312
19 3 O 4.92403 1.14052 4.4844 0 0.0559428 0.00895084 2.22045e-16 0.0447542 0.334493 0.133797 0.363961 0.0216312
20 3 O 4.75767 3.86321 3.18632 0 0.0469862 0.00545859 0 0.0324409 0.0191839 0.00767356 0.0444362 0.0174816
21 1 Mg 2.3745 5.09925 0 0 -0.0278722 0.20485 0 0.467358 -0.963279 -0.610553 1.23742 0.0589925
22 3 O 5.62607 4.21057 5.78248 0 0.0559428 0.00895084 0 0.0447542 0.334493 0.133797 0.363961 0.0216312
23 1 Mg 2.91582 8.12729 1.4948 0 0.20638 0.0684289 0 0.189659 -0.853057 -0.470025 0.996438 0.0916031
24 2 Si 0.850951 6.25791 1.4948 0 -0.250384 0.234789 2.22045e-16 0.630599 -0.532964 -0.472697 0.974319 -0.00519859
25 3 O 3.98672 6.23649 1.4948 0 0.504522 0.171045 0 0.629421 -1.129 -0.4516 1.38713 0.225189
26 3 O 1.82497 9.85798 1.4948 0 0.58736 0.221365 0 0.788356 -1.15296 -0.461185 1.49316 0.269575
27 3 O 1.12293 6.78793 0.196716 0 0.397714 0.22139 2.22045e-16 1.2348 -1.17642 -0.648532 1.83278 0.206368
28 3 O 1.99133 7.13529 2.79288 0 -0.0138781 0.0434028 2.22045e-16 0.102956 -0.502181 -0.200872 0.551185 0.00984158
29 1 Mg 4.749 0 0 0 0.0376063 0.20485 0 0.89455 -0.977196 -0.610553 1.46179 0.0808187
30 1 Mg 9.95668 3.02804 1.4948 0 0.150969 0.0684289 -2.22045e-16 0.307065 -0.992872 -0.470025 1.14249 0.0731328
31 2 Si 7.27255 1.15866 1.4948 0 0.500903 0.234789 0 0.787333 -1.18174 -0.472697 1.51227 0.245231
32 3 O 8.88578 1.13724 1.4948 0 0.221629 0.171045 -1.11022e-16 0.473141 -0.881943 -0.4516 1.10261 0.130891
33 3 O 6.29853 4.75873 1.4948 0 -0.0173904 0.221365 0 0.781597 -0.699559 -0.461185 1.15163 0.0679915
34 3 O 6.13217 1.68868 0.196716 0 0.0428908 0.22139 2.22045e-16 0.72412 -1.03831 -0.648532 1.42596 0.0880935
35 1 Mg 5.749 51.3925 2.9896 0 -0.228321 0.0217331 0 0.160297 -0.0913721 -0.151932 0.267429 -0.0688627
36 3 O 7.00057 2.03604 2.79288 0 0.292289 0.0434028 2.22045e-16 0.225423 -0.502181 -0.200872 0.601671 0.111897
37 1 Mg 6.29032 7.97046 4.4844 0 0.0559428 0.00895084 0 0.0447542 0.334493 0.133797 0.363961 0.0216312
38 2 Si 8.97445 9.83984 4.4844 0 0.0387557 -0.0101755 0 -0.00993647 0.13379 0.0535158 0.146158 0.00952673
39 3 O 7.36122 9.86126 4.4844 0 0.0559428 0.00895084 2.22045e-16 0.0447542 0.334493 0.133797 0.363961 0.0216312
40 3 O 9.94847 6.23977 4.4844 0 0.0559428 0.00895084 0 0.0447542 0.334493 0.133797 0.363961 0.0216312
41 3 O 9.24643 8.96246 3.18632 0 -0.0443599 0.00545859 0 -0.00409751 0.0191839 0.00767356 0.0316801 -0.0129671
42 3 O 10.1148 9.30982 5.78248 0 0.0559428 0.00895084 0 0.0447542 0.334493 0.133797 0.363961 0.0216312
43 1 Mg 8.1235 5.49925 2.9896 0 0.031371 0.0217331 -1.11022e-16 0.0668812 -0.37983 -0.151932 0.414754 0.0177014
44 1 Mg 8.58218 2.87121 4.4844 0 0.0559428 0.00895084 -1.11022e-16 0.0447542 0.334493 0.133797 0.363961 0.0216312
45 2 Si 10.647 4.74059 4.4844 0 -0.0191557 -0.0101755 0 -0.033101 0.13379 0.0535158 0.148082 -0.00977706
46 3 O 7.51128 4.76201 4.4844 0 0.0559428 0.00895084 2.22045e-16 0.0447542 0.334493 0.133797 0.363961 0.0216312
47 3 O 9.67303 1.14052 4.4844 0 0.0559428 0.00895084 2.22045e-16 0.0447542 0.334493 0.133797 0.363961 0.0216312
48 3 O 9.50667 3.86321 3.18632 0 0.0469862 0.00545859 0 0.0324409 0.0191839 0.00767356 0.0444362 0.0174816
49 1 Mg 7.1235 5.09925 0 0 -0.0278722 0.20485 -1.11022e-16 0.467358 -0.963279 -0.610553 1.23742 0.0589925
50 3 O 10.3751 4.21057 5.78248 0 0.0559428 0.00895084 2.22045e-16 0.0447542 0.334493 0.133797 0.363961 0.0216312
51 1 Mg 7.66482 8.12729 1.4948 0 0.20638 0.0684289 0 0.189659 -0.853057 -0.470025 0.996438 0.0916031
52 2 Si 5.59995 6.25791 1.4948 0 -0.250384 0.234789 0 0.630599 -0.532964 -0.472697 0.974319 -0.00519859
53 3 O 8.73572 6.23649 1.4948 0 0.504522 0.171045 0 0.629421 -1.129 -0.4516 1.38713 0.225189
54 3 O 6.57397 9.85798 1.4948 0 0.58736 0.221365 -1.11022e-16 0.788356 -1.15296 -0.461185 1.49316 0.269575
55 3 O 5.87193 6.78793 0.196716 0 0.397714 0.22139 4.44089e-16 1.2348 -1.17642 -0.648532 1.83278 0.206368
56 3 O 6.74033 7.13529 2.79288 0 -0.0138781 0.0434028 2.22045e-16 0.102956 -0.502181 -0.200872 0.551185 0.00984158
57 1 Mg 9.498 0 0 0 0.0376063 0.20485 0 0.89455 -0.977196 -0.610553 1.46179 0.0808187
58 1 Mg 14.7057 3.02804 1.4948 0 0.150969 0.0684289 0 0.307065 -0.992872 -0.470025 1.14249 0.0731328
59 2 Si 12.0215 1.15866 1.4948 0 0.500903 0.234789 0 0.787333 -1.18174 -0.472697 1.51227 0.245231
60 3 O 13.6348 1.13724 1.4948 0 0.221629 0.171045 -1.11022e-16 0.473141 -0.881943 -0.4516 1.10261 0.130891
61 3 O 11.0475 4.75873 1.4948 0 -0.0173904 0.221365 0 0.781597 -0.699559 -0.461185 1.15163 0.0679915
62 3 O 10.8812 1.68868 0.196716 0 0.0428908 0.22139 2.22045e-16 0.72412 -1.03831 -0.648532 1.42596 0.0880935
63 1 Mg 10.498 51.3925 2.9896 0 -0.228321 0.0217331 0 0.160297 -0.0913721 -0.151932 0.267429 -0.0688627
64 3 O 11.7496 2.03604 2.79288 0 0.292289 0.0434028 0 0.225423 -0.502181 -0.200872 0.601671 0.111897
65 1 Mg 11.0393 7.97046 4.4844 0 0.0559428 0.00895084 0 0.0447542 0.334493 0.133797 0.363961 0.0216312
66 2 Si 13.7235 9.83984 4.4844 0 0.0387557 -0.0101755 0 -0.00993647 0.13379 0.0535158 0.146158 0.00952673
67 3 O 12.1102 9.86126 4.4844 0 0.0559428 0.00895084 2.22045e-16 0.0447542 0.334493 0.133797 0.363961 0.0216312
68 3 O 14.6975 6.23977 4.4844 0 0.0559428 0.00895084 0 0.0447542 0.334493 0.133797 0.363961 0.0216312
69 3 O 13.9954 8.96246 3.18632 0 -0.0443599 0.00545859 2.22045e-16 -0.00409751 0.0191839 0.00767356 0.0316801 -0.0129671
70 3 O 14.8638 9.30982 5.78248 0 0.0559428 0.00895084 2.22045e-16 0.0447542 0.334493 0.133797 0.363961 0.0216312
71 1 Mg 12.8725 5.49925 2.9896 0 0.031371 0.0217331 -1.11022e-16 0.0668812 -0.37983 -0.151932 0.414754 0.0177014
72 1 Mg 13.3312 2.87121 4.4844 0 0.0559428 0.00895084 0 0.0447542 0.334493 0.133797 0.363961 0.0216312
73 2 Si 15.396 4.74059 4.4844 0 -0.0191557 -0.0101755 0 -0.033101 0.13379 0.0535158 0.148082 -0.00977706
74 3 O 12.2603 4.76201 4.4844 0 0.0559428 0.00895084 0 0.0447542 0.334493 0.133797 0.363961 0.0216312
75 3 O 14.422 1.14052 4.4844 0 0.0559428 0.00895084 0 0.0447542 0.334493 0.133797 0.363961 0.0216312
76 3 O 14.2557 3.86321 3.18632 0 0.0469862 0.00545859 2.22045e-16 0.0324409 0.0191839 0.00767356 0.0444362 0.0174816
77 1 Mg 11.8725 5.09925 0 0 -0.0278722 0.20485 -1.11022e-16 0.467358 -0.963279 -0.610553 1.23742 0.0589925
78 3 O 15.1241 4.21057 5.78248 0 0.0559428 0.00895084 2.22045e-16 0.0447542 0.334493 0.133797 0.363961 0.0216312
79 1 Mg 12.4138 8.12729 1.4948 0 0.20638 0.0684289 -2.22045e-16 0.189659 -0.853057 -0.470025 0.996438 0.0916031
80 2 Si 10.349 6.25791 1.4948 0 -0.250384 0.234789 2.22045e-16 0.630599 -0.532964 -0.472697 0.974319 -0.00519859
81 3 O 13.4847 6.23649 1.4948 0 0.504522 0.171045 2.22045e-16 0.629421 -1.129 -0.4516 1.38713 0.225189
82 3 O 11.323 9.85798 1.4948 0 0.58736 0.221365 -1.11022e-16 0.788356 -1.15296 -0.461185 1.49316 0.269575
83 3 O 10.6209 6.78793 0.196716 0 0.397714 0.22139 2.22045e-16 1.2348 -1.17642 -0.648532 1.83278 0.206368
84 3 O 11.4893 7.13529 2.79288 0 -0.0138781 0.0434028 0 0.102956 -0.502181 -0.200872 0.551185 0.00984158
85 1 Mg 14.247 0 0 0 0.0376063 0.20485 0 0.89455 -0.977196 -0.610553 1.46179 0.0808187
86 1 Mg 19.4547 3.02804 1.4948 0 0.150969 0.0684289 0 0.307065 -0.992872 -0.470025 1.14249 0.0731328
87 2 Si 16.7705 1.15866 1.4948 0 0.500903 0.234789 -2.22045e-16 0.787333 -1.18174 -0.472697 1.51227 0.245231
88 3 O 18.3838 1.13724 1.4948 0 0.221629 0.171045 2.22045e-16 0.473141 -0.881943 -0.4516 1.10261 0.130891
89 3 O 15.7965 4.75873 1.4948 0 -0.0173904 0.221365 2.22045e-16 0.781597 -0.699559 -0.461185 1.15163 0.0679915
90 3 O 15.6302 1.68868 0.196716 0 0.0428908 0.22139 2.22045e-16 0.72412 -1.03831 -0.648532 1.42596 0.0880935
91 1 Mg 15.247 51.3925 2.9896 0 -0.228321 0.0217331 0 0.160297 -0.0913721 -0.151932 0.267429 -0.0688627
92 3 O 16.4986 2.03604 2.79288 0 0.292289 0.0434028 0 0.225423 -0.502181 -0.200872 0.601671 0.111897
93 1 Mg 15.7883 7.97046 4.4844 0 0.0559428 0.00895084 2.22045e-16 0.0447542 0.334493 0.133797 0.363961 0.0216312
94 2 Si 18.4725 9.83984 4.4844 0 0.0387557 -0.0101755 0 -0.00993647 0.13379 0.0535158 0.146158 0.00952673
95 3 O 16.8592 9.86126 4.4844 0 0.0559428 0.00895084 0 0.0447542 0.334493 0.133797 0.363961 0.0216312
96 3 O 19.4465 6.23977 4.4844 0 0.0559428 0.00895084 0 0.0447542 0.334493 0.133797 0.363961 0.0216312
97 3 O 18.7444 8.96246 3.18632 0 -0.0443599 0.00545859 0 -0.00409751 0.0191839 0.00767356 0.0316801 -0.0129671
98 3 O 19.6128 9.30982 5.78248 0 0.0559428 0.00895084 0 0.0447542 0.334493 0.133797 0.363961 0.0216312
99 1 Mg 17.6215 5.49925 2.9896 0 0.031371 0.0217331 -1.11022e-16 0.0668812 -0.37983 -0.151932 0.414754 0.0177014
100 1 Mg 18.0802 2.87121 4.4844 0 0.0559428 0.00895084 -2.22045e-16 0.0447542 0.334493 0.133797 0.363961 0.0216312
101 2 Si 20.145 4.74059 4.4844 0 -0.0191557 -0.0101755 0 -0.033101 0.13379 0.0535158 0.148082 -0.00977706
102 3 O 17.0093 4.76201 4.4844 0 0.0559428 0.00895084 0 0.0447542 0.334493 0.133797 0.363961 0.0216312
103 3 O 19.171 1.14052 4.4844 0 0.0559428 0.00895084 0 0.0447542 0.334493 0.133797 0.363961 0.0216312
104 3 O 19.0047 3.86321 3.18632 0 0.0469862 0.00545859 0 0.0324409 0.0191839 0.00767356 0.0444362 0.0174816
105 1 Mg 16.6215 5.09925 0 0 -0.0278722 0.20485 -1.11022e-16 0.467358 -0.963279 -0.610553 1.23742 0.0589925
106 3 O 19.8731 4.21057 5.78248 0 0.0559428 0.00895084 2.22045e-16 0.0447542 0.334493 0.133797 0.363961 0.0216312
107 1 Mg 17.1628 8.12729 1.4948 0 0.20638 0.0684289 0 0.189659 -0.853057 -0.470025 0.996438 0.0916031
108 2 Si 15.098 6.25791 1.4948 0 -0.250384 0.234789 0 0.630599 -0.532964 -0.472697 0.974319 -0.00519859
109 3 O 18.2337 6.23649 1.4948 0 0.504522 0.171045 0 0.629421 -1.129 -0.4516 1.38713 0.225189
110 3 O 16.072 9.85798 1.4948 0 0.58736 0.221365 0 0.788356 -1.15296 -0.461185 1.49316 0.269575
111 3 O 15.3699 6.78793 0.196716 0 0.397714 0.22139 2.22045e-16 1.2348 -1.17642 -0.648532 1.83278 0.206368
112 3 O 16.2383 7.13529 2.79288 0 -0.0138781 0.0434028 0 0.102956 -0.502181 -0.200872 0.551185 0.00984158
113 1 Mg 18.996 0 0 0 0.0376063 0.20485 -1.11022e-16 0.89455 -0.977196 -0.610553 1.46179 0.0808187
114 1 Mg 24.2037 3.02804 1.4948 0 0.150969 0.0684289 0 0.307065 -0.992872 -0.470025 1.14249 0.0731328
115 2 Si 21.5195 1.15866 1.4948 0 0.500903 0.234789 -2.22045e-16 0.787333 -1.18174 -0.472697 1.51227 0.245231
116 3 O 23.1328 1.13724 1.4948 0 0.221629 0.171045 0 0.473141 -0.881943 -0.4516 1.10261 0.130891
117 3 O 20.5455 4.75873 1.4948 0 -0.0173904 0.221365 0 0.781597 -0.699559 -0.461185 1.15163 0.0679915
118 3 O 20.3792 1.68868 0.196716 0 0.0428908 0.22139 2.22045e-16 0.72412 -1.03831 -0.648532 1.42596 0.0880935
119 1 Mg 19.996 51.3925 2.9896 0 -0.228321 0.0217331 0 0.160297 -0.0913721 -0.151932 0.267429 -0.0688627
120 3 O 21.2476 2.03604 2.79288 0 0.292289 0.0434028 2.22045e-16 0.225423 -0.502181 -0.200872 0.601671 0.111897
121 1 Mg 20.5373 7.97046 4.4844 0 0.0559428 0.00895084 0 0.0447542 0.334493 0.133797 0.363961 0.0216312
122 2 Si 23.2215 9.83984 4.4844 0 0.0387557 -0.0101755 0 -0.00993647 0.13379 0.0535158 0.146158 0.00952673
123 3 O 21.6082 9.86126 4.4844 0 0.0559428 0.00895084 2.22045e-16 0.0447542 0.334493 0.133797 0.363961 0.0216312
124 3 O 24.1955 6.23977 4.4844 0 0.0559428 0.00895084 2.22045e-16 0.0447542 0.334493 0.133797 0.363961 0.0216312
125 3 O 23.4934 8.96246 3.18632 0 -0.0443599 0.00545859 2.22045e-16 -0.00409751 0.0191839 0.00767356 0.0316801 -0.0129671
126 3 O 24.3618 9.30982 5.78248 0 0.0559428 0.00895084 0 0.0447542 0.334493 0.133797 0.363961 0.0216312
127 1 Mg 22.3705 5.49925 2.9896 0 0.031371 0.0217331 0 0.0668812 -0.37983 -0.151932 0.414754 0.0177014
128 1 Mg 22.8292 2.87121 4.4844 0 0.0559428 0.00895084 0 0.0447542 0.334493 0.133797 0.363961 0.0216312
129 2 Si 24.894 4.74059 4.4844 0 -0.0191557 -0.0101755 0 -0.033101 0.13379 0.0535158 0.148082 -0.00977706
130 3 O 21.7583 4.76201 4.4844 0 0.0559428 0.00895084 2.22045e-16 0.0447542 0.334493 0.133797 0.363961 0.0216312
131 3 O 23.92 1.14052 4.4844 0 0.0559428 0.00895084 0 0.0447542 0.334493 0.133797 0.363961 0.0216312
132 3 O 23.7537 3.86321 3.18632 0 0.0469862 0.00545859 2.22045e-16 0.0324409 0.0191839 0.00767356 0.0444362 0.0174816
133 1 Mg 21.3705 5.09925 0 0 -0.0278722 0.20485 0 0.467358 -0.963279 -0.610553 1.23742 0.0589925
134 3 O 24.6221 4.21057 5.78248 0 0.0559428 0.00895084 2.22045e-16 0.0447542 0.334493 0.133797 0.363961 0.0216312
135 1 Mg 21.9118 8.12729 1.4948 0 0.20638 0.0684289 0 0.189659 -0.853057 -0.470025 0.996438 0.0916031
136 2 Si 19.847 6.25791 1.4948 0 -0.250384 0.234789 2.22045e-16 0.630599 -0.532964 -0.472697 0.974319 -0.00519859
137 3 O 22.9827 6.23649 1.4948 0 0.504522 0.171045 0 0.629421 -1.129 -0.4516 1.38713 0.225189
138 3 O 20.821 9.85798 1.4948 0 0.58736 0.221365 0 0.788356 -1.15296 -0.461185 1.49316 0.269575
139 3 O 20.1189 6.78793 0.196716 0 0.397714 0.22139 4.44089e-16 1.2348 -1.17642 -0.648532 1.83278 0.206368
140 3 O 20.9873 7.13529 2.79288 0 -0.0138781 0.0434028 2.22045e-16 0.102956 -0.502181 -0.200872 0.551185 0.00984158
141 1 Mg 23.745 10.1985 0 0 0.0376063 0.20485 0 0.89455 -0.977196 -0.610553 1.46179 0.0808187
142 1 Mg 5.20768 13.2265 1.4948 0 0.150969 0.0684289 -1.11022e-16 0.307065 -0.992872 -0.470025 1.14249 0.0731328
143 2 Si 2.52355 11.3572 1.4948 0 0.500903 0.234789 2.22045e-16 0.787333 -1.18174 -0.472697 1.51227 0.245231
144 3 O 4.13678 11.3357 1.4948 0 0.221629 0.171045 0 0.473141 -0.881943 -0.4516 1.10261 0.130891
145 3 O 1.54953 14.9572 1.4948 0 -0.0173904 0.221365 0 0.781597 -0.699559 -0.461185 1.15163 0.0679915
146 3 O 1.38317 11.8872 0.196716 0 0.0428908 0.22139 4.44089e-16 0.72412 -1.03831 -0.648532 1.42596 0.0880935
147 1 Mg 24.745 10.5985 2.9896 0 -0.228321 0.0217331 0 0.160297 -0.0913721 -0.151932 0.267429 -0.0688627
148 3 O 2.25157 12.2345 2.79288 0 0.292289 0.0434028 2.22045e-16 0.225423 -0.502181 -0.200872 0.601671 0.111897
149 1 Mg 1.54132 18.169 4.4844 0 0.0559428 0.00895084 -1.11022e-16 0.0447542 0.334493 0.133797 0.363961 0.0216312
150 2 Si 4.22545 20.0383 4.4844 0 0.0387557 -0.0101755 0 -0.00993647 0.13379 0.0535158 0.146158 0.00952673
151 3 O 2.61222 20.0598 4.4844 0 0.0559428 0.00895084 0 0.0447542 0.334493 0.133797 0.363961 0.0216312
152 3 O 5.19947 16.4383 4.4844 0 0.0559428 0.00895084 0 0.0447542 0.334493 0.133797 0.363961 0.0216312
153 3 O 4.49743 19.161 3.18632 0 -0.0443599 0.00545859 0 -0.00409751 0.0191839 0.00767356 0.0316801 -0.0129671
154 3 O 5.36583 19.5083 5.78248 0 0.0559428 0.00895084 0 0.0447542 0.334493 0.133797 0.363961 0.0216312
155 1 Mg 3.3745 15.6977 2.9896 0 0.031371 0.0217331 0 0.0668812 -0.37983 -0.151932 0.414754 0.0177014
156 1 Mg 3.83318 13.0697 4.4844 0 0.0559428 0.00895084 -1.11022e-16 0.0447542 0.334493 0.133797 0.363961 0.0216312
157 2 Si 5.89805 14.9391 4.4844 0 -0.0191557 -0.0101755 2.22045e-16 -0.033101 0.13379 0.0535158 0.148082 -0.00977706
158 3 O 2.76228 14.9605 4.4844 0 0.0559428 0.00895084 0 0.0447542 0.334493 0.133797 0.363961 0.0216312
159 3 O 4.92403 11.339 4.4844 0 0.0559428 0.00895084 2.22045e-16 0.0447542 0.334493 0.133797 0.363961 0.0216312
160 3 O 4.75767 14.0617 3.18632 0 0.0469862 0.00545859 0 0.0324409 0.0191839 0.00767356 0.0444362 0.0174816
161 1 Mg 2.3745 15.2978 0 0 -0.0278722 0.20485 0 0.467358 -0.963279 -0.610553 1.23742 0.0589925
162 3 O 5.62607 14.4091 5.78248 0 0.0559428 0.00895084 2.22045e-16 0.0447542 0.334493 0.133797 0.363961 0.0216312
163 1 Mg 2.91582 18.3258 1.4948 0 0.20638 0.0684289 2.22045e-16 0.189659 -0.853057 -0.470025 0.996438 0.0916031
164 2 Si 0.850951 16.4564 1.4948 0 -0.250384 0.234789 0 0.630599 -0.532964 -0.472697 0.974319 -0.00519859
165 3 O 3.98672 16.435 1.4948 0 0.504522 0.171045 0 0.629421 -1.129 -0.4516 1.38713 0.225189
166 3 O 1.82497 20.0565 1.4948 0 0.58736 0.221365 0 0.788356 -1.15296 -0.461185 1.49316 0.269575
167 3 O 1.12293 16.9864 0.196716 0 0.397714 0.22139 2.22045e-16 1.2348 -1.17642 -0.648532 1.83278 0.206368
168 3 O 1.99133 17.3338 2.79288 0 -0.0138781 0.0434028 2.22045e-16 0.102956 -0.502181 -0.200872 0.551185 0.00984158
169 1 Mg 4.749 10.1985 0 0 0.0376063 0.20485 -1.11022e-16 0.89455 -0.977196 -0.610553 1.46179 0.0808187
170 1 Mg 9.95668 13.2265 1.4948 0 0.150969 0.0684289 -2.22045e-16 0.307065 -0.992872 -0.470025 1.14249 0.0731328
171 2 Si 7.27255 11.3572 1.4948 0 0.500903 0.234789 2.22045e-16 0.787333 -1.18174 -0.472697 1.51227 0.245231
172 3 O 8.88578 11.3357 1.4948 0 0.221629 0.171045 0 0.473141 -0.881943 -0.4516 1.10261 0.130891
173 3 O 6.29853 14.9572 1.4948 0 -0.0173904 0.221365 0 0.781597 -0.699559 -0.461185 1.15163 0.0679915
174 3 O 6.13217 11.8872 0.196716 0 0.0428908 0.22139 2.22045e-16 0.72412 -1.03831 -0.648532 1.42596 0.0880935
175 1 Mg 5.749 10.5985 2.9896 0 -0.228321 0.0217331 -1.11022e-16 0.160297 -0.0913721 -0.151932 0.267429 -0.0688627
176 3 O 7.00057 12.2345 2.79288 0 0.292289 0.0434028 2.22045e-16 0.225423 -0.502181 -0.200872 0.601671 0.111897
177 1 Mg 6.29032 18.169 4.4844 0 0.0559428 0.00895084 0 0.0447542 0.334493 0.133797 0.363961 0.0216312
178 2 Si 8.97445 20.0383 4.4844 0 0.0387557 -0.0101755 0 -0.00993647 0.13379 0.0535158 0.146158 0.00952673
179 3 O 7.36122 20.0598 4.4844 0 0.0559428 0.00895084 0 0.0447542 0.334493 0.133797 0.363961 0.0216312
180 3 O 9.94847 16.4383 4.4844 0 0.0559428 0.00895084 0 0.0447542 0.334493 0.133797 0.363961 0.0216312
181 3 O 9.24643 19.161 3.18632 0 -0.0443599 0.00545859 0 -0.00409751 0.0191839 0.00767356 0.0316801 -0.0129671
182 3 O 10.1148 19.5083 5.78248 0 0.0559428 0.00895084 0 0.0447542 0.334493 0.133797 0.363961 0.0216312
183 1 Mg 8.1235 15.6977 2.9896 0 0.031371 0.0217331 0 0.0668812 -0.37983 -0.151932 0.414754 0.0177014
184 1 Mg 8.58218 13.0697 4.4844 0 0.0559428 0.00895084 0 0.0447542 0.334493 0.133797 0.363961 0.0216312
185 2 Si 10.647 14.9391 4.4844 0 -0.0191557 -0.0101755 0 -0.033101 0.13379 0.0535158 0.148082 -0.00977706
186 3 O 7.51128 14.9605 4.4844 0 0.0559428 0.00895084 0 0.0447542 0.334493 0.133797 0.363961 0.0216312
187 3 O 9.67303 11.339 4.4844 0 0.0559428 0.00895084 0 0.0447542 0.334493 0.133797 0.363961 0.0216312
188 3 O 9.50667 14.0617 3.18632 0 0.0469862 0.00545859 0 0.0324409 0.0191839 0.00767356 0.0444362 0.0174816
189 1 Mg 7.1235 15.2978 0 0 -0.0278722 0.20485 -1.11022e-16 0.467358 -0.963279 -0.610553 1.23742 0.0589925
190 3 O 10.3751 14.4091 5.78248 0 0.0559428 0.00895084 2.22045e-16 0.0447542 0.334493 0.133797 0.363961 0.0216312
191 1 Mg 7.66482 18.3258 1.4948 0 0.20638 0.0684289 0 0.189659 -0.853057 -0.470025 0.996438 0.0916031
192 2 Si 5.59995 16.4564 1.4948 0 -0.250384 0.234789 2.22045e-16 0.630599 -0.532964 -0.472697 0.974319 -0.00519859
193 3 O 8.73572 16.435 1.4948 0 0.504522 0.171045 -1.11022e-16 0.629421 -1.129 -0.4516 1.38713 0.225189
194 3 O 6.57397 20.0565 1.4948 0 0.58736 0.221365 0 0.788356 -1.15296 -0.461185 1.49316 0.269575
195 3 O 5.87193 16.9864 0.196716 0 0.397714 0.22139 4.44089e-16 1.2348 -1.17642 -0.648532 1.83278 0.206368
196 3 O 6.74033 17.3338 2.79288 0 -0.0138781 0.0434028 2.22045e-16 0.102956 -0.502181 -0.200872 0.551185 0.00984158
197 1 Mg 9.498 10.1985 0 0 0.0376063 0.20485 -1.11022e-16 0.89455 -0.977196 -0.610553 1.46179 0.0808187
198 1 Mg 14.7057 13.2265 1.4948 0 0.150969 0.0684289 -2.22045e-16 0.307065 -0.992872 -0.470025 1.14249 0.0731328
199 2 Si 12.0215 11.3572 1.4948 0 0.500903 0.234789 0 0.787333 -1.18174 -0.472697 1.51227 0.245231
200 3 O 13.6348 11.3357 1.4948 0 0.221629 0.171045 0 0.473141 -0.881943 -0.4516 1.10261 0.130891
201 3 O 11.0475 14.9572 1.4948 0 -0.0173904 0.221365 0 0.781597 -0.699559 -0.461185 1.15163 0.0679915
202 3 O 10.8812 11.8872 0.196716 0 0.0428908 0.22139 2.22045e-16 0.72412 -1.03831 -0.648532 1.42596 0.0880935
203 1 Mg 10.498 10.5985 2.9896 0 -0.228321 0.0217331 -1.11022e-16 0.160297 -0.0913721 -0.151932 0.267429 -0.0688627
204 3 O 11.7496 12.2345 2.79288 0 0.292289 0.0434028 2.22045e-16 0.225423 -0.502181 -0.200872 0.601671 0.111897
205 1 Mg 11.0393 18.169 4.4844 0 0.0559428 0.00895084 0 0.0447542 0.334493 0.133797 0.363961 0.0216312
206 2 Si 13.7235 20.0383 4.4844 0 0.0387557 -0.0101755 0 -0.00993647 0.13379 0.0535158 0.146158 0.00952673
207 3 O 12.1102 20.0598 4.4844 0 0.0559428 0.00895084 0 0.0447542 0.334493 0.133797 0.363961 0.0216312
208 3 O 14.6975 16.4383 4.4844 0 0.0559428 0.00895084 0 0.0447542 0.334493 0.133797 0.363961 0.0216312
209 3 O 13.9954 19.161 3.18632 0 -0.0443599 0.00545859 2.22045e-16 -0.00409751 0.0191839 0.00767356 0.0316801 -0.0129671
210 3 O 14.8638 19.5083 5.78248 0 0.0559428 0.00895084 2.22045e-16 0.0447542 0.334493 0.133797 0.363961 0.0216312
211 1 Mg 12.8725 15.6977 2.9896 0 0.031371 0.0217331 0 0.0668812 -0.37983 -0.151932 0.414754 0.0177014
212 1 Mg 13.3312 13.0697 4.4844 0 0.0559428 0.00895084 0 0.0447542 0.334493 0.133797 0.363961 0.0216312
213 2 Si 15.396 14.9391 4.4844 0 -0.0191557 -0.0101755 0 -0.033101 0.13379 0.0535158 0.148082 -0.00977706
214 3 O 12.2603 14.9605 4.4844 0 0.0559428 0.00895084 0 0.0447542 0.334493 0.133797 0.363961 0.0216312
215 3 O 14.422 11.339 4.4844 0 0.0559428 0.00895084 0 0.0447542 0.334493 0.133797 0.363961 0.0216312
216 3 O 14.2557 14.0617 3.18632 0 0.0469862 0.00545859 2.22045e-16 0.0324409 0.0191839 0.00767356 0.0444362 0.0174816
217 1 Mg 11.8725 15.2978 0 0 -0.0278722 0.20485 0 0.467358 -0.963279 -0.610553 1.23742 0.0589925
218 3 O 15.1241 14.4091 5.78248 0 0.0559428 0.00895084 2.22045e-16 0.0447542 0.334493 0.133797 0.363961 0.0216312
219 1 Mg 12.4138 18.3258 1.4948 0 0.20638 0.0684289 0 0.189659 -0.853057 -0.470025 0.996438 0.0916031
220 2 Si 10.349 16.4564 1.4948 0 -0.250384 0.234789 0 0.630599 -0.532964 -0.472697 0.974319 -0.00519859
221 3 O 13.4847 16.435 1.4948 0 0.504522 0.171045 2.22045e-16 0.629421 -1.129 -0.4516 1.38713 0.225189
222 3 O 11.323 20.0565 1.4948 0 0.58736 0.221365 2.22045e-16 0.788356 -1.15296 -0.461185 1.49316 0.269575
223 3 O 10.6209 16.9864 0.196716 0 0.397714 0.22139 2.22045e-16 1.2348 -1.17642 -0.648532 1.83278 0.206368
224 3 O 11.4893 17.3338 2.79288 0 -0.0138781 0.0434028 0 0.102956 -0.502181 -0.200872 0.551185 0.00984158
225 1 Mg 14.247 10.1985 0 0 0.0376063 0.20485 -1.11022e-16 0.89455 -0.977196 -0.610553 1.46179 0.0808187
226 1 Mg 19.4547 13.2265 1.4948 0 0.150969 0.0684289 -2.22045e-16 0.307065 -0.992872 -0.470025 1.14249 0.0731328
227 2 Si 16.7705 11.3572 1.4948 0 0.500903 0.234789 0 0.787333 -1.18174 -0.472697 1.51227 0.245231
228 3 O 18.3838 11.3357 1.4948 0 0.221629 0.171045 0 0.473141 -0.881943 -0.4516 1.10261 0.130891
229 3 O 15.7965 14.9572 1.4948 0 -0.0173904 0.221365 2.22045e-16 0.781597 -0.699559 -0.461185 1.15163 0.0679915
230 3 O 15.6302 11.8872 0.196716 0 0.0428908 0.22139 2.22045e-16 0.72412 -1.03831 -0.648532 1.42596 0.0880935
231 1 Mg 15.247 10.5985 2.9896 0 -0.228321 0.0217331 -1.11022e-16 0.160297 -0.0913721 -0.151932 0.267429 -0.0688627
232 3 O 16.4986 12.2345 2.79288 0 0.292289 0.0434028 2.22045e-16 0.225423 -0.502181 -0.200872 0.601671 0.111897
233 1 Mg 15.7883 18.169 4.4844 0 0.0559428 0.00895084 0 0.0447542 0.334493 0.133797 0.363961 0.0216312
234 2 Si 18.4725 20.0383 4.4844 0 0.0387557 -0.0101755 0 -0.00993647 0.13379 0.0535158 0.146158 0.00952673
235 3 O 16.8592 20.0598 4.4844 0 0.0559428 0.00895084 -1.11022e-16 0.0447542 0.334493 0.133797 0.363961 0.0216312
236 3 O 19.4465 16.4383 4.4844 0 0.0559428 0.00895084 0 0.0447542 0.334493 0.133797 0.363961 0.0216312
237 3 O 18.7444 19.161 3.18632 0 -0.0443599 0.00545859 0 -0.00409751 0.0191839 0.00767356 0.0316801 -0.0129671
238 3 O 19.6128 19.5083 5.78248 0 0.0559428 0.00895084 0 0.0447542 0.334493 0.133797 0.363961 0.0216312
239 1 Mg 17.6215 15.6977 2.9896 0 0.031371 0.0217331 0 0.0668812 -0.37983 -0.151932 0.414754 0.0177014
240 1 Mg 18.0802 13.0697 4.4844 0 0.0559428 0.00895084 0 0.0447542 0.334493 0.133797 0.363961 0.0216312
241 2 Si 20.145 14.9391 4.4844 0 -0.0191557 -0.0101755 0 -0.033101 0.13379 0.0535158 0.148082 -0.00977706
242 3 O 17.0093 14.9605 4.4844 0 0.0559428 0.00895084 0 0.0447542 0.334493 0.133797 0.363961 0.0216312
243 3 O 19.171 11.339 4.4844 0 0.0559428 0.00895084 0 0.0447542 0.334493 0.133797 0.363961 0.0216312
244 3 O 19.0047 14.0617 3.18632 0 0.0469862 0.00545859 0 0.0324409 0.0191839 0.00767356 0.0444362 0.0174816
245 1 Mg 16.6215 15.2978 0 0 -0.0278722 0.20485 -1.11022e-16 0.467358 -0.963279 -0.610553 1.23742 0.0589925
246 3 O 19.8731 14.4091 5.78248 0 0.0559428 0.00895084 2.22045e-16 0.0447542 0.334493 0.133797 0.363961 0.0216312
247 1 Mg 17.1628 18.3258 1.4948 0 0.20638 0.0684289 0 0.189659 -0.853057 -0.470025 0.996438 0.0916031
248 2 Si 15.098 16.4564 1.4948 0 -0.250384 0.234789 0 0.630599 -0.532964 -0.472697 0.974319 -0.00519859
249 3 O 18.2337 16.435 1.4948 0 0.504522 0.171045 0 0.629421 -1.129 -0.4516 1.38713 0.225189
250 3 O 16.072 20.0565 1.4948 0 0.58736 0.221365 0 0.788356 -1.15296 -0.461185 1.49316 0.269575
251 3 O 15.3699 16.9864 0.196716 0 0.397714 0.22139 2.22045e-16 1.2348 -1.17642 -0.648532 1.83278 0.206368
252 3 O 16.2383 17.3338 2.79288 0 -0.0138781 0.0434028 0 0.102956 -0.502181 -0.200872 0.551185 0.00984158
253 1 Mg 18.996 10.1985 0 0 0.0376063 0.20485 0 0.89455 -0.977196 -0.610553 1.46179 0.0808187
254 1 Mg 24.2037 13.2265 1.4948 0 0.150969 0.0684289 0 0.307065 -0.992872 -0.470025 1.14249 0.0731328
255 2 Si 21.5195 11.3572 1.4948 0 0.500903 0.234789 0 0.787333 -1.18174 -0.472697 1.51227 0.245231
256 3 O 23.1328 11.3357 1.4948 0 0.221629 0.171045 2.22045e-16 0.473141 -0.881943 -0.4516 1.10261 0.130891
257 3 O 20.5455 14.9572 1.4948 0 -0.0173904 0.221365 0 0.781597 -0.699559 -0.461185 1.15163 0.0679915
258 3 O 20.3792 11.8872 0.196716 0 0.0428908 0.22139 2.22045e-16 0.72412 -1.03831 -0.648532 1.42596 0.0880935
259 1 Mg 19.996 10.5985 2.9896 0 -0.228321 0.0217331 0 0.160297 -0.0913721 -0.151932 0.267429 -0.0688627
260 3 O 21.2476 12.2345 2.79288 0 0.292289 0.0434028 2.22045e-16 0.225423 -0.502181 -0.200872 0.601671 0.111897
261 1 Mg 20.5373 18.169 4.4844 0 0.0559428 0.00895084 0 0.0447542 0.334493 0.133797 0.363961 0.0216312
262 2 Si 23.2215 20.0383 4.4844 0 0.0387557 -0.0101755 0 -0.00993647 0.13379 0.0535158 0.146158 0.00952673
263 3 O 21.6082 20.0598 4.4844 0 0.0559428 0.00895084 2.22045e-16 0.0447542 0.334493 0.133797 0.363961 0.0216312
264 3 O 24.1955 16.4383 4.4844 0 0.0559428 0.00895084 0 0.0447542 0.334493 0.133797 0.363961 0.0216312
265 3 O 23.4934 19.161 3.18632 0 -0.0443599 0.00545859 2.22045e-16 -0.00409751 0.0191839 0.00767356 0.0316801 -0.0129671
266 3 O 24.3618 19.5083 5.78248 0 0.0559428 0.00895084 0 0.0447542 0.334493 0.133797 0.363961 0.0216312
267 1 Mg 22.3705 15.6977 2.9896 0 0.031371 0.0217331 0 0.0668812 -0.37983 -0.151932 0.414754 0.0177014
268 1 Mg 22.8292 13.0697 4.4844 0 0.0559428 0.00895084 -1.11022e-16 0.0447542 0.334493 0.133797 0.363961 0.0216312
269 2 Si 24.894 14.9391 4.4844 0 -0.0191557 -0.0101755 0 -0.033101 0.13379 0.0535158 0.148082 -0.00977706
270 3 O 21.7583 14.9605 4.4844 0 0.0559428 0.00895084 2.22045e-16 0.0447542 0.334493 0.133797 0.363961 0.0216312
271 3 O 23.92 11.339 4.4844 0 0.0559428 0.00895084 0 0.0447542 0.334493 0.133797 0.363961 0.0216312
272 3 O 23.7537 14.0617 3.18632 0 0.0469862 0.00545859 2.22045e-16 0.0324409 0.0191839 0.00767356 0.0444362 0.0174816
273 1 Mg 21.3705 15.2978 0 0 -0.0278722 0.20485 0 0.467358 -0.963279 -0.610553 1.23742 0.0589925
274 3 O 24.6221 14.4091 5.78248 0 0.0559428 0.00895084 2.22045e-16 0.0447542 0.334493 0.133797 0.363961 0.0216312
275 1 Mg 21.9118 18.3258 1.4948 0 0.20638 0.0684289 -2.22045e-16 0.189659 -0.853057 -0.470025 0.996438 0.0916031
276 2 Si 19.847 16.4564 1.4948 0 -0.250384 0.234789 0 0.630599 -0.532964 -0.472697 0.974319 -0.00519859
277 3 O 22.9827 16.435 1.4948 0 0.504522 0.171045 0 0.629421 -1.129 -0.4516 1.38713 0.225189
278 3 O 20.821 20.0565 1.4948 0 0.58736 0.221365 2.22045e-16 0.788356 -1.15296 -0.461185 1.49316 0.269575
279 3 O 20.1189 16.9864 0.196716 0 0.397714 0.22139 4.44089e-16 1.2348 -1.17642 -0.648532 1.83278 0.206368
280 3 O 20.9873 17.3338 2.79288 0 -0.0138781 0.0434028 2.22045e-16 0.102956 -0.502181 -0.200872 0.551185 0.00984158