ITEM: TIMESTEP
0
ITEM: NUMBER OF ATOMS
29
ITEM: BOX BOUNDS pp pp pp
0	17.5532
0	117.998
0	159.277
ITEM: ATOMS id type element xu yu zu Steinhardt[1] Steinhardt[2]
1 1 Ni 0 0 0 1.7932936760040634 1.4222741573289794
2 1 Ni 0 0 0 1.568018808990304 1.4171992009367078
3 1 Ni 0 0 0 1.435914735566147 1.3820260596554188
4 1 Ni 0 0 0 1.6643799467546292 1.5235326770747113
5 1 Ni 0 0 0 1.5978593304376163 1.5522522776308127
6 1 Ni 0 0 0 1.4368184824426762 1.4117726140885904
7 1 Ni 0 0 0 1.4513495415068693 1.4780758071844662
8 1 Ni 0 0 0 1.5061334400835762 1.4452388574038628
9 1 Ni 0 0 0 1.695208013064109 1.6216273623011794
10 1 Ni 0 0 0 1.6592883485201642 1.579232607174928
11 1 Ni 0 0 0 1.6198516969163417 1.4532201190289027
12 1 Ni 0 0 0 1.5911450995890701 1.503886506787497
13 1 Ni 0 0 0 1.8837538818442567 1.6158259628106382
14 1 Ni 0 0 0 1.6569297000578678 1.4362963383503178
15 1 Ni 0 0 0 1.67441250159077 1.5336710027315301
16 1 Ni 0 0 0 1.5001595398718945 1.3786795132439165
17 1 Ni 0 0 0 1.5395022106603413 1.5007277248705146
10 1 Ni 0 0 0 1.6471730190284657 1.4863677550539098
11 1 Ni 0 0 0 1.6876787505700748 1.529581613527335
12 1 Ni 0 0 0 1.485465879551176 1.3874171758119014
13 1 Ni 0 0 0 1.666265908478184 1.44620253019638
14 1 Ni 0 0 0 1.6112010804731138 1.4287312295120727
15 1 Ni 0 0 0 1.733316158305973 1.5216918241154438
16 1 Ni 0 0 0 1.7906756326154973 1.6027988060405618
17 1 Ni 0 0 0 1.3000550797946837 1.325633431703381
18 1 Ni 0 0 0 1.618673275474703 1.4654433708155246
19 1 Ni 0 0 0 1.56155229486255 1.3696024228178176
20 1 Ni 0 0 0 1.5518676780030833 1.4165835437602403
21 1 Ni 0 0 0 1.5523773755691255 1.40601552750366
22 1 Ni 0 0 0 1.9081980118034925 1.73598164457682
23 1 Ni 0 0 0 1.6833284103215338 1.5813848534076616
24 1 Ni 0 0 0 1.5328064735412812 1.356944230931414
25 1 Ni 0 0 0 1.7275885592830207 1.6086557021176051
26 1 Ni 0 0 0 1.4646937116931107 1.4335248721052267
27 1 Ni 0 0 0 1.622433327302264 1.4050255721545866
28 1 Ni 0 0 0 1.7299672648032582 1.545585861332863
29 1 Ni 0 0 0 1.704019814778913 1.509375480092124
