ITEM: TIMESTEP
0
ITEM: NUMBER OF ATOMS
100
ITEM: BOX BOUNDS pp pp pp
0	17.5532
0	117.998
0	159.277
ITEM: ATOMS id type element xu yu zu Steinhardt[1] Steinhardt[2]
1 1 Ni 0 0 0 1.7136005303560797 1.6313029262633487
2 1 Ni 0 0 0 1.6893907247167705 1.5081081873790636
3 1 Ni 0 0 0 1.7067499560780528 1.5911720652123522
4 1 Ni 0 0 0 1.6479678889111966 1.5533652030221314
5 1 Ni 0 0 0 1.6977681358727021 1.4979450404750019
6 1 Ni 0 0 0 1.5022225855020068 1.4143688667494456
7 1 Ni 0 0 0 1.5028535746180371 1.4359270336945884
8 1 Ni 0 0 0 1.551570877287136 1.4266009199306275
9 1 Ni 0 0 0 1.3423453865474804 1.3983244781651503
10 1 Ni 0 0 0 1.6496279663138191 1.526368363452383
11 1 Ni 0 0 0 1.5324807933598596 1.374305030298603
12 1 Ni 0 0 0 1.7698120737348344 1.4339885373125065
13 1 Ni 0 0 0 1.5261171713642048 1.4556677644707752
14 1 Ni 0 0 0 1.5890830139775032 1.4927127866134942
15 1 Ni 0 0 0 1.877744017221095 1.6247268632360694
16 1 Ni 0 0 0 1.5160198899593393 1.4287596988020683
17 1 Ni 0 0 0 1.70923479913133 1.3625293961899012
18 1 Ni 0 0 0 1.5511621474599127 1.376777780719427
19 1 Ni 0 0 0 1.68618748025325 1.488768313973996
20 1 Ni 0 0 0 1.5435697318141324 1.4544532306762068
21 1 Ni 0 0 0 1.8937144671451644 1.6712035699638599
22 1 Ni 0 0 0 1.565882553897586 1.563841458770646
23 1 Ni 0 0 0 1.8221899543066058 1.6430510739046136
24 1 Ni 0 0 0 1.5377041235242763 1.4518252949338424
25 1 Ni 0 0 0 1.5048788084444622 1.42651976617603
26 1 Ni 0 0 0 1.5660863759138135 1.4007268204444692
27 1 Ni 0 0 0 1.5018834687989813 1.346104377735727
28 1 Ni 0 0 0 1.4599762739783115 1.2948327414749996
29 1 Ni 0 0 0 1.538946905008946 1.467572748840022
30 1 Ni 0 0 0 1.6535619640492971 1.514739662322916
31 1 Ni 0 0 0 1.5729060116720532 1.4657312610258275
32 1 Ni 0 0 0 1.6919844564985136 1.4721936392282278
33 1 Ni 0 0 0 1.7078606976763098 1.4935544238437464
34 1 Ni 0 0 0 1.444945016112886 1.4420717605139506
35 1 Ni 0 0 0 1.5107493664868328 1.4155178882000798
36 1 Ni 0 0 0 1.4309908827596423 1.428106530014884
37 1 Ni 0 0 0 1.4991648196832033 1.4925562825582734
38 1 Ni 0 0 0 1.7848188015342745 1.5177911298047297
39 1 Ni 0 0 0 1.3642510004612167 1.36652186353511
40 1 Ni 0 0 0 1.5989280761683158 1.4331852857899166
41 1 Ni 0 0 0 1.5706967106478944 1.4123705482674687
42 1 Ni 0 0 0 1.7181379358997482 1.5621462567332605
43 1 Ni 0 0 0 1.6923744759564059 1.542889533941218
44 1 Ni 0 0 0 1.6018267404254725 1.6362493240093483
45 1 Ni 0 0 0 1.6450723945985661 1.4885818793389558
46 1 Ni 0 0 0 1.6233378923337731 1.517583996514349
47 1 Ni 0 0 0 1.6658597706524068 1.6112401553366145
48 1 Ni 0 0 0 1.4876666987462444 1.3596716477668747
49 1 Ni 0 0 0 1.3649532651596814 1.3257244138654232
50 1 Ni 0 0 0 1.4912866094494215 1.40519541646563
51 1 Ni 0 0 0 1.6067666072213291 1.4995302025844004
52 1 Ni 0 0 0 1.627111877669335 1.4940031967545886
53 1 Ni 0 0 0 1.8015909972278474 1.5969166882657486
54 1 Ni 0 0 0 1.5024783509289452 1.2988815514042569
55 1 Ni 0 0 0 1.7873693217867352 1.49318735683643
56 1 Ni 0 0 0 1.6030594442767954 1.4630662139048523
57 1 Ni 0 0 0 1.5951642297182214 1.4787608717708718
58 1 Ni 0 0 0 1.5009203196347893 1.3447942843570615
59 1 Ni 0 0 0 1.6762877368973679 1.551621956273189
60 1 Ni 0 0 0 1.5613240312860295 1.4506537694554398
61 1 Ni 0 0 0 1.682985955149101 1.5158458934897434
62 1 Ni 0 0 0 1.454780014307139 1.4963346533804907
63 1 Ni 0 0 0 1.7455467004256964 1.4748226020755357
64 1 Ni 0 0 0 1.6155107550708427 1.4749325418339911
65 1 Ni 0 0 0 1.4382195693304451 1.3437324128254928
66 1 Ni 0 0 0 1.5469703827722123 1.4648448049505185
67 1 Ni 0 0 0 1.4811624544451552 1.3791654049430258
68 1 Ni 0 0 0 1.7622739265517113 1.5736571901353418
69 1 Ni 0 0 0 1.4918559268595362 1.373534692185644
70 1 Ni 0 0 0 1.75680066060538 1.6532599152355723
71 1 Ni 0 0 0 1.6315660179080718 1.3956341527379572
72 1 Ni 0 0 0 1.6052275162744554 1.4408732348109063
73 1 Ni 0 0 0 1.5894769214395523 1.60393762985821
74 1 Ni 0 0 0 1.6779407162363689 1.6557286069203876
75 1 Ni 0 0 0 1.4812771058280456 1.428801723698988
76 1 Ni 0 0 0 1.8796601569846545 1.5914413074315468
77 1 Ni 0 0 0 1.53932836724947 1.4703227408267734
78 1 Ni 0 0 0 1.5381469507105123 1.4443312165202216
79 1 Ni 0 0 0 1.533915920616937 1.4219833317361408
80 1 Ni 0 0 0 1.7685082168431985 1.6199098017845972
81 1 Ni 0 0 0 1.6999735718662774 1.5758809004627277
82 1 Ni 0 0 0 1.5994107470189785 1.4504797309092934
83 1 Ni 0 0 0 1.5441396304972805 1.533447562243451
84 1 Ni 0 0 0 1.60713227583225 1.4170195232204068
85 1 Ni 0 0 0 1.5738408344569796 1.436577258108488
86 1 Ni 0 0 0 1.6843315641182672 1.6273541807704384
87 1 Ni 0 0 0 1.6992764179716642 1.641380198865489
88 1 Ni 0 0 0 1.4758097256698501 1.4079943540946709
89 1 Ni 0 0 0 1.4473245620961572 1.4690924991318455
90 1 Ni 0 0 0 1.6659330459323956 1.5310642175200462
91 1 Ni 0 0 0 1.4811467863808527 1.4886356055828036
92 1 Ni 0 0 0 1.3817262635107153 1.3863699290780607
93 1 Ni 0 0 0 1.7238424490580482 1.4496855142339973
94 1 Ni 0 0 0 1.7211659474805117 1.5815624025458044
95 1 Ni 0 0 0 1.476274658551837 1.4626535987774039
96 1 Ni 0 0 0 1.4712642466524921 1.3962073321386315
97 1 Ni 0 0 0 1.719512818640879 1.4972761487745716
98 1 Ni 0 0 0 1.4290924229646276 1.4225565392465582
99 1 Ni 0 0 0 1.6152382746475435 1.5384227925561378
100 1 Ni 0 0 0 1.643622034535923 1.4963189012051366
ITEM: TIMESTEP
10
ITEM: NUMBER OF ATOMS
219
ITEM: BOX BOUNDS pp pp pp
0	17.5532
0	117.998
0	159.277
ITEM: ATOMS id type element xu yu zu Steinhardt[1] Steinhardt[2]
1 1 Ni 0 0 0 1.476725974540044 1.4171247657451198
2 1 Ni 0 0 0 1.8504639501130287 1.6386535521071361
3 1 Ni 0 0 0 1.3940815081806266 1.3828007970697178
4 1 Ni 0 0 0 1.289411293049915 1.3527761459088847
5 1 Ni 0 0 0 1.3879907522779364 1.3952991164053565
6 1 Ni 0 0 0 1.4119491359029872 1.311854735336316
7 1 Ni 0 0 0 1.480861527564048 1.391879637938995
8 1 Ni 0 0 0 1.837743164621977 1.681404851662572
9 1 Ni 0 0 0 1.5670001711660748 1.4609706122640493
30 1 Ni 0 0 0 1.5807065444178774 1.529809999394319
31 1 Ni 0 0 0 1.6286321927960912 1.5045898850106751
32 1 Ni 0 0 0 1.6231818384819114 1.493277743858465
33 1 Ni 0 0 0 1.6160600840034727 1.4005520317549185
34 1 Ni 0 0 0 1.5570643008033982 1.5413799823970007
35 1 Ni 0 0 0 1.5125265937467154 1.4765352663017135
36 1 Ni 0 0 0 1.7739211541374378 1.5568605528073642
37 1 Ni 0 0 0 1.6871905125407984 1.6037002157386693
38 1 Ni 0 0 0 1.439502709042251 1.497026817918957
39 1 Ni 0 0 0 1.4744287015546385 1.3758166133664513
40 1 Ni 0 0 0 1.7918917343322944 1.6037548022022754
41 1 Ni 0 0 0 1.6185554787932577 1.5277986412456444
42 1 Ni 0 0 0 1.5212317124380006 1.355188054849995
43 1 Ni 0 0 0 1.4290325295736 1.4293552227998725
44 1 Ni 0 0 0 1.7198560902240168 1.4862067896334454
45 1 Ni 0 0 0 1.943301277043643 1.5572426427410753
46 1 Ni 0 0 0 2.1122640904738903 1.780669956135993
47 1 Ni 0 0 0 1.8137067791050552 1.5504535223643654
48 1 Ni 0 0 0 1.4846020780649027 1.4275980534381039
49 1 Ni 0 0 0 1.6620358192491698 1.459349146082741
50 1 Ni 0 0 0 1.73264412416906 1.561188104159497
51 1 Ni 0 0 0 1.6269648223403192 1.546063532069654
52 1 Ni 0 0 0 1.6265322803734819 1.5135687123070605
53 1 Ni 0 0 0 1.7729437463921305 1.601319845305964
54 1 Ni 0 0 0 1.6903112320317821 1.525557025700797
55 1 Ni 0 0 0 1.463964740423883 1.4727771325028653
56 1 Ni 0 0 0 1.3577476366865888 1.4500251755878812
57 1 Ni 0 0 0 1.666934089831453 1.381183271535265
58 1 Ni 0 0 0 1.6129203658816658 1.5114151497200212
59 1 Ni 0 0 0 1.3065384717049526 1.4138109639283027
60 1 Ni 0 0 0 1.3929615258019548 1.294425118924893
61 1 Ni 0 0 0 1.5316786577725512 1.4015848811324627
62 1 Ni 0 0 0 1.560198044978625 1.4660919841156332
63 1 Ni 0 0 0 1.703837422110939 1.5478903964220605
64 1 Ni 0 0 0 1.7885330111671784 1.5456561496891326
65 1 Ni 0 0 0 1.5673805116556514 1.5612277514629969
66 1 Ni 0 0 0 1.5821931752385996 1.4092577058391438
67 1 Ni 0 0 0 1.7591056992673781 1.5815148128127863
68 1 Ni 0 0 0 1.9247494081402434 1.6995952104150478
69 1 Ni 0 0 0 1.6412777839935762 1.3897045430522321
70 1 Ni 0 0 0 1.6012068775138162 1.6366381994431514
71 1 Ni 0 0 0 1.585509894721018 1.556017319858408
72 1 Ni 0 0 0 1.5789951850553543 1.4919086434929862
73 1 Ni 0 0 0 1.4652655090312698 1.4609161797637178
74 1 Ni 0 0 0 1.6350035438033124 1.574760784721121
75 1 Ni 0 0 0 1.7185883265714461 1.4598100904582791
76 1 Ni 0 0 0 1.6156430784822322 1.4491159663358117
77 1 Ni 0 0 0 1.625743683448806 1.5297160723442633
78 1 Ni 0 0 0 1.5694323745945702 1.5452066084862126
79 1 Ni 0 0 0 1.4461849970732128 1.4605110373224266
80 1 Ni 0 0 0 1.486750698019784 1.46223877698195
81 1 Ni 0 0 0 1.9508079566223382 1.7129914962236046
82 1 Ni 0 0 0 1.5036512820691224 1.377188790733418
83 1 Ni 0 0 0 1.7538847511067983 1.5659483108311383
84 1 Ni 0 0 0 1.367907504182353 1.4017124316939245
85 1 Ni 0 0 0 1.5505031382200518 1.5434066706179623
86 1 Ni 0 0 0 1.7523593772716723 1.5217398984886699
87 1 Ni 0 0 0 1.6485002995011004 1.5247154192036367
88 1 Ni 0 0 0 1.697819908022921 1.532981600350758
89 1 Ni 0 0 0 1.609341789264459 1.4042815679494312
90 1 Ni 0 0 0 1.576126171991842 1.4710404570399902
91 1 Ni 0 0 0 1.8138977868586785 1.5879828887811895
92 1 Ni 0 0 0 1.597592215328701 1.5348098818606934
93 1 Ni 0 0 0 1.389733953287342 1.4650655194484947
94 1 Ni 0 0 0 1.6553354397449944 1.479063905551335
95 1 Ni 0 0 0 1.6937412788247799 1.6282379004122876
96 1 Ni 0 0 0 1.610152752550962 1.47677714063343
97 1 Ni 0 0 0 1.3996300383236717 1.3372926184814942
98 1 Ni 0 0 0 1.4048737614430664 1.3862441429425643
99 1 Ni 0 0 0 1.7752514119815193 1.528453223739883
100 2 Ag 0 0 0 3.634449015075988 1.0602360988495836
101 2 Ag 0 0 0 3.6125467624161454 1.002517988428005
102 2 Ag 0 0 0 3.528120519091952 0.8479700387033691
103 2 Ag 0 0 0 3.5881145409193342 0.9696918329751721
104 2 Ag 0 0 0 3.6076676457491725 0.9519542332734323
105 2 Ag 0 0 0 3.630100485289112 1.069907885114358
106 2 Ag 0 0 0 3.5981077552918803 0.9695570669827607
107 2 Ag 0 0 0 3.5825774682818996 0.9616376376868374
108 2 Ag 0 0 0 3.616737496144026 1.0232458068777552
109 2 Ag 0 0 0 3.6862865491774506 1.1741174287912588
110 2 Ag 0 0 0 3.620719047863567 1.0544406440343477
111 2 Ag 0 0 0 3.677371796910831 1.1188325409692714
112 2 Ag 0 0 0 3.529042942662406 0.8283599308030325
113 2 Ag 0 0 0 3.6582953248151844 1.0685825043086254
114 2 Ag 0 0 0 3.6203143653776446 0.9872234723340547
115 2 Ag 0 0 0 3.6482145053051096 1.1027926839073752
116 2 Ag 0 0 0 3.686178735537512 1.1454242288378653
117 2 Ag 0 0 0 3.5921951966984533 0.9847208126204693
118 2 Ag 0 0 0 3.599598335940601 0.9627394361091752
119 2 Ag 0 0 0 3.6095646657666682 0.9646243100599479
120 2 Ag 0 0 0 3.5768467581609755 0.9153935944977869
121 2 Ag 0 0 0 3.5869576592543098 0.9275864201436252
122 2 Ag 0 0 0 3.609333440221989 0.9733654101059805
123 2 Ag 0 0 0 3.613853294108973 1.061558300455098
124 2 Ag 0 0 0 3.5819242999541885 0.9991391634567365
125 2 Ag 0 0 0 3.5697142697729807 0.9131918770237156
126 2 Ag 0 0 0 3.6021956271814015 1.0207412142117975
127 2 Ag 0 0 0 3.606644328778008 1.0047345017245515
128 2 Ag 0 0 0 3.564947145111338 0.9189029900717084
129 2 Ag 0 0 0 3.6507848603871826 1.1068187999144004
130 2 Ag 0 0 0 3.6165987916757016 1.0494713597887517
131 2 Ag 0 0 0 3.595714066381978 0.9809073081128281
132 2 Ag 0 0 0 3.697160116876163 1.1596271687994777
133 2 Ag 0 0 0 3.5850930354188213 0.9481393103170396
134 2 Ag 0 0 0 3.5679032869029976 0.9049657636944959
135 2 Ag 0 0 0 3.5964843154338224 1.066123834411854
136 2 Ag 0 0 0 3.612707559417556 0.9870585194622241
137 2 Ag 0 0 0 3.5881083185647245 0.9560648256887441
138 2 Ag 0 0 0 3.491588524912998 0.8057267767529714
139 2 Ag 0 0 0 3.6881522916273664 1.1511671892436548
140 2 Ag 0 0 0 3.6259305778878397 1.0479580414777536
141 2 Ag 0 0 0 3.625210667863618 1.0443688507737268
142 2 Ag 0 0 0 3.592727660024382 0.9352776345210048
143 2 Ag 0 0 0 3.4853308789974213 0.6862950118799516
144 2 Ag 0 0 0 3.5532677901853575 0.8981257025743719
145 2 Ag 0 0 0 3.609787303400018 1.062623801947476
146 2 Ag 0 0 0 3.6239008288609065 1.0630753384706368
147 2 Ag 0 0 0 3.6468582794508406 1.0940380786931332
148 2 Ag 0 0 0 3.706423940883894 1.234902167948607
149 2 Ag 0 0 0 3.574287952621179 0.9740978171334619
150 2 Ag 0 0 0 3.5689153531901843 0.9355919129500101
151 2 Ag 0 0 0 3.611747208902918 1.0040995916575006
152 2 Ag 0 0 0 3.596556879405619 0.958629088098328
153 2 Ag 0 0 0 3.6848501577511192 1.1978978099418072
154 2 Ag 0 0 0 3.68948399677662 1.1362294725475919
155 2 Ag 0 0 0 3.6432696493505135 1.0216991995744773
156 2 Ag 0 0 0 3.5687730677736886 0.9066964445357681
157 2 Ag 0 0 0 3.618966293423783 1.040730044485633
158 2 Ag 0 0 0 3.5580936759700745 0.9193261970044042
159 2 Ag 0 0 0 3.602831427537928 0.999309851531726
160 2 Ag 0 0 0 3.6024588564691693 1.0235527409802614
161 2 Ag 0 0 0 3.6431232147226265 1.0784430926734954
162 2 Ag 0 0 0 3.5385246470598535 0.846757498865674
163 2 Ag 0 0 0 3.6717653549256943 1.1529935565195617
164 2 Ag 0 0 0 3.5772545123596804 0.9327249584483019
165 2 Ag 0 0 0 3.6879280636573606 1.1660918478687832
166 2 Ag 0 0 0 3.612122088606442 0.9950815609441953
167 2 Ag 0 0 0 3.5562314688331442 0.9445891444828426
168 2 Ag 0 0 0 3.5715528731751083 0.9317456625223083
169 2 Ag 0 0 0 3.574870278584094 0.9631596327229051
170 2 Ag 0 0 0 3.628338988217344 1.0664111314021607
171 2 Ag 0 0 0 3.6486723101663485 1.0326734473594126
172 2 Ag 0 0 0 3.5505076884617766 0.9242922237091054
173 2 Ag 0 0 0 3.6195258579683736 1.0295026536685914
174 2 Ag 0 0 0 3.597225419298202 0.9861531540180237
175 2 Ag 0 0 0 3.704366310893503 1.2098035390315318
176 2 Ag 0 0 0 3.6924519663677975 1.1579876057080356
177 2 Ag 0 0 0 3.5987248193924746 1.011559811560061
178 2 Ag 0 0 0 3.51992254168927 0.8296819519766605
179 2 Ag 0 0 0 3.5470278110003175 0.8695482851644257
180 2 Ag 0 0 0 3.5923667118283316 0.9293380006347952
181 2 Ag 0 0 0 3.6420469479105915 1.1032525913693982
182 2 Ag 0 0 0 3.6319103911591917 1.0480031828061804
183 2 Ag 0 0 0 3.637324963425608 1.0854862267898497
184 2 Ag 0 0 0 3.6497663691316347 1.0530532381182685
185 2 Ag 0 0 0 3.633261143107835 1.0811179174561423
186 2 Ag 0 0 0 3.603303425356338 0.9740624971676484
187 2 Ag 0 0 0 3.61863064703703 1.0231609651499998
188 2 Ag 0 0 0 3.6044725279875376 1.0142878809513274
189 2 Ag 0 0 0 3.637164147565411 1.0530128580448752
190 2 Ag 0 0 0 3.570098028264311 0.8990233005595206
191 2 Ag 0 0 0 3.612514728207486 1.0071485938381954
192 2 Ag 0 0 0 3.6788309464013564 1.1037952290949358
193 2 Ag 0 0 0 3.5632138488476524 0.909413843973259
194 2 Ag 0 0 0 3.5563846759184647 0.8862870142053475
195 2 Ag 0 0 0 3.7754885873527693 1.3431315652150257
196 2 Ag 0 0 0 3.6207261889017595 0.9798630599269127
197 2 Ag 0 0 0 3.7003485268367795 1.1668367301281275
198 2 Ag 0 0 0 3.642570203838445 1.0913295556345197
199 2 Ag 0 0 0 3.6146630342840105 1.0510267008824503
200 2 Ag 0 0 0 3.6182902325204047 1.0183228234852646
201 2 Ag 0 0 0 3.59413007930877 0.9673064777815786
202 2 Ag 0 0 0 3.5877526491388845 0.9932917148292852
203 2 Ag 0 0 0 3.6039818676707864 0.9956766712464233
204 2 Ag 0 0 0 3.6152406064802993 1.0370630850111253
205 2 Ag 0 0 0 3.6428753659763595 1.0941780474848286
206 2 Ag 0 0 0 3.6199271153927683 1.0076935201036452
207 2 Ag 0 0 0 3.573110991240699 0.9052970280718472
208 2 Ag 0 0 0 3.7310931929841864 1.2692179048765833
209 2 Ag 0 0 0 3.611581185167824 1.012906421410876
210 2 Ag 0 0 0 3.576995568724235 0.8996084385064483
211 2 Ag 0 0 0 3.6309322198291283 1.053994705502147
212 2 Ag 0 0 0 3.6247938437542078 1.0695046726283564
213 2 Ag 0 0 0 3.5833388550536784 1.0024084135964622
214 2 Ag 0 0 0 3.5994625334659607 0.9989744265994659
215 2 Ag 0 0 0 3.5523181978759473 0.9013254752176593
216 2 Ag 0 0 0 3.6173744177483425 0.9527230568797153
217 2 Ag 0 0 0 3.5988294839416373 1.0456972397784607
218 2 Ag 0 0 0 3.652179820854604 1.119351440749745
219 2 Ag 0 0 0 3.5885772054721055 0.953070616909663
