 # LAMMPS timestep 2846
 
       14240  atoms
           3  atom types
 
      0.000000000000     285.950000000000  xlo xhi
      0.000000000000     142.692000000000  ylo yhi
      0.000000000000     144.034000000000  zlo zhi
 
Masses
 
            1   24.30500000             # Mg
            2   28.08500000             # Si
            3   15.99900000             # O
 
Atoms # charge
 
         1    3  -1.200000       39.206000000000      44.596500000000       4.414570000000
         2    3  -1.200000       39.039100000000      47.621100000000       3.153200000000
         3    2   2.400000       39.865700000000      43.123500000000       4.341050000000
         4    3  -1.200000       41.439300000000      43.102800000000       4.372010000000
         5    3  -1.200000       39.125900000000      49.718500000000       4.471130000000
         6    3  -1.200000       39.217700000000      42.450700000000       3.043870000000
         7    3  -1.200000       39.166700000000      42.442300000000       5.629720000000
         8    3  -1.200000       39.194300000000      44.517100000000      10.470400000000
         9    2   2.400000       39.846800000000      43.012100000000      10.428800000000
        10    3  -1.200000       41.413000000000      43.037500000000      10.474000000000
        11    3  -1.200000       39.160200000000      42.419300000000       9.118420000000
        12    3  -1.200000       39.122100000000      42.327000000000      11.683700000000
        13    3  -1.200000       39.103400000000      44.303400000000      16.557000000000
        14    2   2.400000       39.763400000000      42.795900000000      16.462600000000
        15    3  -1.200000       41.331800000000      42.840500000000      16.512000000000
        16    3  -1.200000       39.093200000000      42.255900000000      15.128500000000
        17    3  -1.200000       39.045800000000      42.053000000000      17.691400000000
        18    2   2.400000       39.678700000000      42.381300000000      22.520200000000
        19    3  -1.200000       41.264000000000      42.550300000000      22.667200000000
        20    1   1.200000       40.675200000000      51.959300000000       1.200320000000
        21    3  -1.200000       39.515900000000      49.970000000000       1.302980000000
        22    3  -1.200000       39.526300000000      54.738100000000       4.234520000000
        23    3  -1.200000       39.371700000000      57.797300000000       2.894000000000
        24    3  -1.200000       39.336900000000      57.710500000000       5.451310000000
        25    2   2.400000       40.175000000000      53.259200000000       4.188480000000
        26    3  -1.200000       41.749200000000      53.239800000000       4.237870000000
        27    3  -1.200000       39.487400000000      59.886900000000       4.224250000000
        28    3  -1.200000       39.532200000000      52.566200000000       2.902160000000
        29    3  -1.200000       39.469900000000      52.598500000000       5.487230000000
        30    1   1.200000       40.377700000000      51.960600000000       7.242580000000
        31    3  -1.200000       39.243600000000      50.076200000000       7.423900000000
        32    3  -1.200000       39.502500000000      54.735800000000      10.288100000000
        33    3  -1.200000       39.273400000000      57.718600000000       8.865130000000
        34    3  -1.200000       39.238100000000      57.692200000000      11.424100000000
        35    2   2.400000       40.141500000000      53.226100000000      10.275200000000
        36    3  -1.200000       41.706000000000      53.250000000000      10.347800000000
        37    3  -1.200000       39.339900000000      59.851400000000      10.152200000000
        38    3  -1.200000       39.464400000000      52.623600000000       8.966070000000
        39    3  -1.200000       39.404000000000      52.558900000000      11.534700000000
        40    1   1.200000       40.287000000000      51.911200000000      13.296500000000
        41    3  -1.200000       39.139300000000      50.002500000000      13.435300000000
        42    3  -1.200000       39.374900000000      54.655900000000      16.378400000000
        43    3  -1.200000       39.143200000000      57.730100000000      14.833200000000
        44    3  -1.200000       39.087700000000      57.700800000000      17.402400000000
        45    2   2.400000       39.994900000000      53.140800000000      16.328400000000
        46    3  -1.200000       41.558600000000      53.159100000000      16.433500000000
        47    3  -1.200000       39.201000000000      59.867700000000      16.119300000000
        48    3  -1.200000       39.360600000000      52.580600000000      14.983600000000
        49    3  -1.200000       39.249800000000      52.420400000000      17.553500000000
        50    1   1.200000       40.094000000000      51.790700000000      19.332300000000
        51    3  -1.200000       39.057100000000      54.217100000000      22.472700000000
        52    2   2.400000       39.542600000000      52.704600000000      22.388400000000
        53    3  -1.200000       41.125300000000      52.677700000000      22.399900000000
        54    1   1.200000       39.481600000000      57.269100000000      25.025300000000
        55    1   1.200000       41.061400000000      62.181000000000       0.875970000000
        56    3  -1.200000       39.891600000000      60.122200000000       1.043880000000
        57    2   2.400000       39.120900000000      68.678300000000       3.929330000000
        58    3  -1.200000       39.923500000000      64.930100000000       3.920690000000
        59    3  -1.200000       39.778800000000      68.002200000000       2.646290000000
        60    3  -1.200000       39.756100000000      67.939900000000       5.196180000000
        61    2   2.400000       40.569100000000      63.448300000000       3.871220000000
        62    3  -1.200000       42.145800000000      63.424000000000       3.912810000000
        63    3  -1.200000       39.908300000000      70.111700000000       3.956890000000
        64    3  -1.200000       39.927000000000      62.755500000000       2.584910000000
        65    3  -1.200000       39.862800000000      62.789300000000       5.172170000000
        66    1   1.200000       40.764900000000      62.159500000000       6.931600000000
        67    3  -1.200000       39.608600000000      60.266000000000       7.148080000000
        68    2   2.400000       39.032200000000      68.625300000000       9.876610000000
        69    3  -1.200000       39.919300000000      64.965600000000       9.937030000000
        70    3  -1.200000       39.712000000000      67.924900000000       8.613320000000
        71    3  -1.200000       39.689600000000      67.952900000000      11.169900000000
        72    2   2.400000       40.551600000000      63.449200000000       9.942500000000
        73    3  -1.200000       42.115900000000      63.473100000000       9.995340000000
        74    3  -1.200000       39.789000000000      70.083500000000       9.864320000000
        75    3  -1.200000       39.856100000000      62.834400000000       8.647700000000
        76    3  -1.200000       39.811700000000      62.810000000000      11.215200000000
        77    1   1.200000       40.698500000000      62.171900000000      12.985700000000
        78    3  -1.200000       39.512700000000      60.281600000000      13.114100000000
        79    3  -1.200000       39.847200000000      65.041300000000      15.933400000000
        80    3  -1.200000       39.640200000000      68.000300000000      14.614100000000
        81    3  -1.200000       39.602500000000      68.126000000000      17.179000000000
        82    2   2.400000       40.462800000000      63.513600000000      15.952600000000
        83    3  -1.200000       42.022900000000      63.535400000000      15.983200000000
        84    3  -1.200000       39.716500000000      70.199000000000      15.813900000000
        85    3  -1.200000       39.766300000000      62.879000000000      14.667600000000
        86    3  -1.200000       39.718300000000      62.901400000000      17.228700000000
        87    1   1.200000       40.596200000000      62.338600000000      19.010900000000
        88    3  -1.200000       39.349100000000      60.367000000000      19.117700000000
        89    3  -1.200000       39.929600000000      65.241600000000      22.127300000000
        90    3  -1.200000       39.455200000000      68.471000000000      20.615900000000
        91    3  -1.200000       39.184200000000      67.870500000000      23.031600000000
        92    2   2.400000       40.378700000000      63.679600000000      22.047900000000
        93    3  -1.200000       41.931400000000      63.661200000000      21.886300000000
        94    3  -1.200000       39.219500000000      70.471000000000      22.314300000000
        95    3  -1.200000       39.660900000000      63.177200000000      20.612400000000
        96    1   1.200000       39.746700000000      66.382700000000      24.042100000000
        97    3  -1.200000       39.924800000000      62.446000000000      22.951300000000
        98    1   1.200000       41.530700000000      72.468900000000       0.692321000000
        99    3  -1.200000       40.285500000000      70.356100000000       0.806332000000
       100    2   2.400000       39.565400000000      78.924000000000       3.876840000000
       101    3  -1.200000       40.372400000000      75.170100000000       3.765640000000
       102    3  -1.200000       40.228600000000      78.256600000000       2.588800000000
       103    3  -1.200000       40.205600000000      78.176000000000       5.133620000000
       104    2   2.400000       41.023300000000      73.689200000000       3.697460000000
       105    3  -1.200000       42.601000000000      73.669600000000       3.720320000000
       106    3  -1.200000       40.350000000000      80.358200000000       3.919470000000
       107    3  -1.200000       40.373800000000      73.009200000000       2.404420000000
       108    3  -1.200000       40.315000000000      73.017200000000       4.989940000000
       109    1   1.200000       41.233200000000      72.376500000000       6.745750000000
       110    3  -1.200000       40.048200000000      70.491100000000       6.887630000000
       111    2   2.400000       39.502100000000      78.813500000000       9.813990000000
       112    3  -1.200000       40.395500000000      75.178800000000       9.763380000000
       113    3  -1.200000       40.182100000000      78.128700000000       8.538680000000
       114    3  -1.200000       40.171400000000      78.126200000000      11.090300000000
       115    2   2.400000       41.032200000000      73.664100000000       9.764210000000
       116    3  -1.200000       42.597600000000      73.694000000000       9.785070000000
       117    3  -1.200000       40.260600000000      80.268900000000       9.827710000000
       118    3  -1.200000       40.314100000000      73.040700000000       8.479980000000
       119    3  -1.200000       40.291200000000      73.035700000000      11.040400000000
       120    1   1.200000       39.185500000000      77.533000000000       6.821300000000
       121    1   1.200000       41.201300000000      72.400900000000      12.789000000000
       122    3  -1.200000       39.988100000000      70.535200000000      12.832400000000
       123    2   2.400000       39.478000000000      78.824700000000      15.767200000000
       124    3  -1.200000       40.388200000000      75.258300000000      15.751600000000
       125    3  -1.200000       40.161600000000      78.133900000000      14.501000000000
       126    3  -1.200000       40.142400000000      78.157000000000      17.055700000000
       127    2   2.400000       41.019000000000      73.740600000000      15.771800000000
       128    3  -1.200000       42.582600000000      73.770900000000      15.756500000000
       129    3  -1.200000       40.249400000000      80.271800000000      15.775600000000
       130    3  -1.200000       40.279200000000      73.088700000000      14.514500000000
       131    1   1.200000       39.001600000000      74.849100000000      17.258200000000
       132    3  -1.200000       40.291600000000      73.168600000000      17.075200000000
       133    1   1.200000       39.174900000000      77.536400000000      12.787700000000
       134    1   1.200000       41.189700000000      72.577400000000      18.811900000000
       135    3  -1.200000       39.928100000000      70.748900000000      18.866000000000
       136    2   2.400000       39.418200000000      78.939500000000      21.879400000000
       137    3  -1.200000       40.772900000000      75.406700000000      22.214700000000
       138    3  -1.200000       40.123100000000      78.261200000000      20.484400000000
       139    3  -1.200000       39.966800000000      77.949800000000      22.945100000000
       140    1   1.200000       39.050300000000      74.939500000000      20.328900000000
       141    2   2.400000       41.249400000000      73.908100000000      21.934500000000
       142    3  -1.200000       42.833800000000      73.928000000000      21.772100000000
       143    3  -1.200000       40.066600000000      80.367100000000      21.809400000000
       144    3  -1.200000       40.444600000000      73.447500000000      20.546700000000
       145    1   1.200000       39.733200000000      76.284100000000      23.811700000000
       146    3  -1.200000       40.802400000000      72.809300000000      22.920600000000
       147    1   1.200000       39.179400000000      77.629100000000      18.787200000000
       148    1   1.200000       41.975100000000      82.732100000000       0.772662000000
       149    2   2.400000       39.139500000000      80.939600000000       0.829760000000
       150    3  -1.200000       40.722100000000      80.656300000000       0.788648000000
       151    2   2.400000       39.967600000000      89.123600000000       4.096700000000
       152    3  -1.200000       40.797300000000      85.404000000000       3.890480000000
       153    3  -1.200000       40.648000000000      88.482300000000       2.799490000000
       154    3  -1.200000       40.608800000000      88.369500000000       5.345090000000
       155    1   1.200000       39.294500000000      84.911000000000       2.143830000000
       156    1   1.200000       39.273400000000      82.172100000000       3.915440000000
       157    2   2.400000       41.457000000000      83.928800000000       3.804220000000
       158    3  -1.200000       43.033500000000      83.910500000000       3.824350000000
       159    3  -1.200000       40.742800000000      90.561400000000       4.158340000000
       160    3  -1.200000       40.802800000000      83.259800000000       2.503790000000
       161    1   1.200000       39.392700000000      84.970000000000       5.312730000000
       162    3  -1.200000       40.748100000000      83.241200000000       5.085960000000
       163    1   1.200000       39.420100000000      87.782500000000       1.328480000000
       164    1   1.200000       41.681400000000      82.575300000000       6.824820000000
       165    3  -1.200000       40.497400000000      80.703200000000       6.865800000000
       166    2   2.400000       39.910300000000      88.940400000000      10.048600000000
       167    3  -1.200000       40.834400000000      85.331700000000       9.885910000000
       168    3  -1.200000       40.595300000000      88.287900000000       8.756250000000
       169    3  -1.200000       40.586500000000      88.229000000000      11.306300000000
       170    1   1.200000       39.418400000000      84.879800000000       8.357040000000
       171    1   1.200000       39.243900000000      82.097500000000       9.837940000000
       172    2   2.400000       41.485300000000      83.825400000000       9.871870000000
       173    3  -1.200000       43.051100000000      83.855300000000       9.895860000000
       174    3  -1.200000       40.662100000000      90.397900000000      10.101700000000
       175    3  -1.200000       40.760900000000      83.205100000000       8.584320000000
       176    1   1.200000       39.428000000000      84.876200000000      11.365000000000
       177    3  -1.200000       40.751700000000      83.183200000000      11.141500000000
       178    1   1.200000       39.606300000000      87.712800000000       7.027150000000
       179    1   1.200000       41.692100000000      82.508000000000      12.848200000000
       180    3  -1.200000       40.475400000000      80.660600000000      12.807300000000
       181    2   2.400000       39.930700000000      88.802300000000      16.016200000000
       182    3  -1.200000       40.872400000000      85.268400000000      15.873000000000
       183    3  -1.200000       40.617000000000      88.174200000000      14.717600000000
       184    3  -1.200000       40.617600000000      88.076200000000      17.267400000000
       185    1   1.200000       39.440000000000      84.823100000000      14.360300000000
       186    1   1.200000       39.235800000000      82.071500000000      15.782200000000
       187    2   2.400000       41.521800000000      83.760700000000      15.862300000000
       188    3  -1.200000       43.086400000000      83.784900000000      15.883800000000
       189    3  -1.200000       40.687700000000      90.252000000000      16.092400000000
       190    3  -1.200000       40.771900000000      83.139100000000      14.591500000000
       191    1   1.200000       39.484500000000      84.821500000000      17.343000000000
       192    3  -1.200000       40.786600000000      83.146000000000      17.143500000000
       193    1   1.200000       39.619300000000      87.615200000000      13.002000000000
       194    1   1.200000       41.729500000000      82.437300000000      18.792200000000
       195    3  -1.200000       40.439400000000      80.668800000000      18.781700000000
       196    2   2.400000       39.912500000000      88.580300000000      22.070600000000
       197    3  -1.200000       41.152600000000      85.071300000000      21.977300000000
       198    3  -1.200000       40.694400000000      87.991600000000      20.704700000000
       199    3  -1.200000       40.272600000000      87.438500000000      23.090000000000
       200    1   1.200000       39.584500000000      84.681800000000      20.308900000000
       201    1   1.200000       39.378800000000      82.150200000000      21.559600000000
       202    2   2.400000       41.733900000000      83.588100000000      21.918600000000
       203    3  -1.200000       43.313000000000      83.476800000000      21.874800000000
       204    3  -1.200000       40.662100000000      89.973700000000      22.145300000000
       205    3  -1.200000       40.906700000000      83.079500000000      20.574600000000
       206    1   1.200000       39.577400000000      85.571500000000      23.051100000000
       207    3  -1.200000       41.126200000000      82.765500000000      23.104300000000
       208    1   1.200000       39.707700000000      87.486600000000      18.996700000000
       209    1   1.200000       42.326200000000      92.887600000000       1.061310000000
       210    2   2.400000       39.538800000000      91.174300000000       1.066210000000
       211    3  -1.200000       41.122900000000      90.907700000000       1.026890000000
       212    2   2.400000       40.275000000000      99.258800000000       4.417020000000
       213    3  -1.200000       41.139300000000      95.576300000000       4.208930000000
       214    3  -1.200000       40.962500000000      98.622100000000       3.121090000000
       215    3  -1.200000       40.919100000000      98.516100000000       5.668380000000
       216    1   1.200000       39.635300000000      95.068600000000       2.431820000000
       217    1   1.200000       39.641700000000      92.358200000000       4.166970000000
       218    2   2.400000       41.803200000000      94.106100000000       4.110710000000
       219    3  -1.200000       43.378100000000      94.082200000000       4.133740000000
       220    3  -1.200000       41.149800000000      93.446900000000       2.805060000000
       221    1   1.200000       39.735900000000      95.126700000000       5.623620000000
       222    3  -1.200000       41.100900000000      93.407900000000       5.388400000000
       223    1   1.200000       39.760800000000      97.934200000000       1.636110000000
       224    1   1.200000       42.038100000000      92.722800000000       7.120250000000
       225    2   2.400000       39.321800000000      90.998200000000       7.104290000000
       226    3  -1.200000       40.882300000000      90.864800000000       7.124590000000
       227    2   2.400000       40.206900000000      99.044500000000      10.387000000000
       228    3  -1.200000       41.174300000000      95.438800000000      10.228900000000
       229    3  -1.200000       40.891000000000      98.407100000000       9.088650000000
       230    3  -1.200000       40.885600000000      98.323700000000      11.640800000000
       231    1   1.200000       39.761600000000      95.016400000000       8.677420000000
       232    1   1.200000       39.610000000000      92.208900000000      10.108800000000
       233    2   2.400000       41.831900000000      93.937300000000      10.194700000000
       234    3  -1.200000       43.398300000000      93.961200000000      10.230000000000
       235    3  -1.200000       41.117000000000      93.332800000000       8.895260000000
       236    1   1.200000       39.769000000000      94.959900000000      11.703300000000
       237    3  -1.200000       41.110900000000      93.272800000000      11.458200000000
       238    1   1.200000       39.925000000000      97.853700000000       7.349150000000
       239    1   1.200000       42.056700000000      92.559000000000      13.160700000000
       240    2   2.400000       39.317300000000      90.862200000000      13.054400000000
       241    3  -1.200000       40.877700000000      90.724100000000      13.096000000000
       242    2   2.400000       40.224600000000      98.809900000000      16.404900000000
       243    3  -1.200000       41.217400000000      95.241900000000      16.271700000000
       244    3  -1.200000       40.895800000000      98.212700000000      15.083500000000
       245    3  -1.200000       40.919600000000      98.058300000000      17.641700000000
       246    1   1.200000       39.787000000000      94.865400000000      14.721500000000
       247    1   1.200000       39.622600000000      92.038600000000      16.070600000000
       248    2   2.400000       41.869900000000      93.739200000000      16.224700000000
       249    3  -1.200000       43.437400000000      93.756600000000      16.278100000000
       250    3  -1.200000       41.139800000000      93.153800000000      14.927500000000
       251    1   1.200000       39.826600000000      94.743500000000      17.738200000000
       252    3  -1.200000       41.153000000000      93.068700000000      17.488400000000
       253    1   1.200000       39.928300000000      97.691100000000      13.346700000000
       254    1   1.200000       42.112700000000      92.281900000000      19.142900000000
       255    2   2.400000       39.302800000000      90.604700000000      18.959600000000
       256    3  -1.200000       40.860100000000      90.529800000000      19.066400000000
       257    2   2.400000       40.303800000000      98.447800000000      22.504700000000
       258    3  -1.200000       41.378000000000      94.850400000000      22.303400000000
       259    3  -1.200000       41.029500000000      97.848400000000      21.143300000000
       260    3  -1.200000       40.763400000000      97.400600000000      23.632300000000
       261    1   1.200000       39.915000000000      94.512400000000      20.746700000000
       262    1   1.200000       39.834500000000      91.655000000000      21.719200000000
       263    2   2.400000       42.006000000000      93.355200000000      22.334600000000
       264    3  -1.200000       43.588600000000      93.292900000000      22.467700000000
       265    3  -1.200000       40.947000000000      99.888700000000      22.530600000000
       266    3  -1.200000       41.287300000000      92.804800000000      20.995500000000
       267    1   1.200000       40.274300000000      95.493000000000      23.718100000000
       268    3  -1.200000       41.312900000000      92.644200000000      23.602700000000
       269    1   1.200000       40.020900000000      97.413200000000      19.408500000000
       270    3  -1.200000       39.155800000000      99.829300000000       1.295640000000
       271    3  -1.200000       41.002700000000      43.708300000000       1.229940000000
       272    1   1.200000       40.379000000000      46.302500000000       4.468790000000
       273    2   2.400000       43.191500000000      48.103800000000       4.510730000000
       274    3  -1.200000       41.630200000000      48.210100000000       4.455190000000
       275    3  -1.200000       44.037300000000      44.423000000000       4.461500000000
       276    3  -1.200000       43.869200000000      47.440900000000       3.228060000000
       277    3  -1.200000       43.825600000000      47.378000000000       5.779110000000
       278    1   1.200000       42.545900000000      43.865200000000       2.708150000000
       279    2   2.400000       44.699000000000      42.950800000000       4.383420000000
       280    3  -1.200000       46.272600000000      42.932000000000       4.407750000000
       281    3  -1.200000       43.953800000000      49.546300000000       4.535100000000
       282    3  -1.200000       44.050800000000      42.280000000000       3.085310000000
       283    1   1.200000       42.638500000000      43.990400000000       5.900890000000
       284    3  -1.200000       44.003400000000      42.266900000000       5.672710000000
       285    1   1.200000       42.653900000000      46.701200000000       1.775800000000
       286    2   2.400000       40.432300000000      45.179500000000       1.356270000000
       287    3  -1.200000       40.799100000000      46.382900000000       0.369260000000
       288    3  -1.200000       41.237900000000      45.653900000000       2.753420000000
       289    3  -1.200000       41.248500000000      43.492400000000       7.425790000000
       290    1   1.200000       40.354500000000      46.248000000000      10.511700000000
       291    2   2.400000       43.068800000000      47.998200000000      10.469300000000
       292    3  -1.200000       41.507700000000      48.122900000000      10.477800000000
       293    3  -1.200000       44.025300000000      44.344300000000      10.506100000000
       294    3  -1.200000       43.760100000000      47.339200000000       9.192600000000
       295    3  -1.200000       43.722400000000      47.283100000000      11.743600000000
       296    1   1.200000       42.638900000000      43.899500000000       8.955040000000
       297    2   2.400000       44.683000000000      42.840500000000      10.466900000000
       298    3  -1.200000       46.249300000000      42.872200000000      10.503000000000
       299    3  -1.200000       43.803200000000      49.461400000000      10.508000000000
       300    3  -1.200000       43.995000000000      42.243800000000       9.158920000000
       301    1   1.200000       42.601600000000      43.866500000000      11.990200000000
       302    3  -1.200000       43.959400000000      42.157000000000      11.724000000000
       303    1   1.200000       42.812900000000      46.745100000000       7.467210000000
       304    2   2.400000       40.592700000000      44.995700000000       7.460860000000
       305    3  -1.200000       39.027300000000      44.974300000000       7.429350000000
       306    3  -1.200000       41.316500000000      45.665500000000       6.200380000000
       307    3  -1.200000       41.290100000000      45.597500000000       8.769100000000
       308    3  -1.200000       41.183700000000      43.370900000000      13.476800000000
       309    1   1.200000       40.250000000000      46.049400000000      16.635000000000
       310    2   2.400000       42.927000000000      47.861900000000      16.435800000000
       311    3  -1.200000       41.363400000000      47.964300000000      16.489400000000
       312    3  -1.200000       43.942500000000      44.163700000000      16.547900000000
       313    3  -1.200000       43.630800000000      47.249300000000      15.148100000000
       314    3  -1.200000       43.581600000000      47.086300000000      17.686400000000
       315    1   1.200000       42.566300000000      43.742300000000      14.996200000000
       316    2   2.400000       44.615900000000      42.660800000000      16.486700000000
       317    3  -1.200000       46.181700000000      42.719300000000      16.527400000000
       318    3  -1.200000       43.644500000000      49.327000000000      16.530700000000
       319    3  -1.200000       43.932800000000      42.083600000000      15.172800000000
       320    1   1.200000       42.516200000000      43.647900000000      17.994700000000
       321    1   1.200000       42.724100000000      46.670900000000      13.422700000000
       322    2   2.400000       40.521200000000      44.874500000000      13.542000000000
       323    3  -1.200000       41.249200000000      45.574700000000      12.294800000000
       324    3  -1.200000       41.188100000000      45.435800000000      14.880600000000
       325    3  -1.200000       41.135700000000      43.026800000000      19.486800000000