ITEM: TIMESTEP
5000000
ITEM: NUMBER OF ATOMS
5000
ITEM: BOX BOUNDS pp pp pp
0	54
0	54
0	54
ITEM: ATOMS id type xu yu zu Steinhardt[1] Steinhardt[2] Steinhardt[3] Steinhardt[4] Steinhardt[5] Steinhardt[6] Steinhardt[7] Steinhardt[8] Steinhardt[9] Steinhardt[10] Steinhardt[11] Steinhardt[12]
1 2 10.0958 0.393576 17.7377 0.169569 0.0518034 0.0120923 0.0172184 0.00703515 0.0173886 0.0166997 0.0330085 0.0170647 0.0259083 0.0192288 0.0363243
2 2 11.6027 -3.42969 -7.01952 0.00807303 0.00887347 0.00642108 0.0129747 0.00654297 0.0135538 0.0098936 0.0259702 0.0129232 0.0187077 0.0157906 0.0226838
3 2 6.78506 1.27901 4.23204 0.0129824 0.00417549 0.005929 0.0133768 0.00645245 0.018277 0.00901285 0.0535519 0.0132665 0.0253519 0.0118401 0.0611718
4 2 -8.13358 3.59008 14.1841 0.0872857 0.0431759 0.00708186 0.0178551 0.00593662 0.0151505 0.010096 0.0445859 0.0162116 0.0228477 0.0133511 0.0462171
5 2 -0.161063 -4.02012 -13.5556 0.0176818 0.010222 0.00581043 0.0151846 0.00655287 0.0148423 0.0148782 0.0436244 0.0152534 0.025989 0.0166273 0.0599924
6 2 -4.06282 -9.37243 11.5592 0.0801331 0.0368707 0.00766721 0.0249783 0.00727209 0.0271108 0.0152857 0.0556972 0.0146967 0.0284056 0.0190882 0.0781726
7 2 -11.5499 -0.554295 -4.4003 0.012373 0.0029145 0.003406 0.0108437 0.00593517 0.0118457 0.0108 0.0337519 0.00776752 0.0265679 0.0174408 0.0346377
8 2 -8.94975 -5.28575 1.43321 0.00946332 0.0062101 0.00517157 0.0106781 0.00646474 0.0109179 0.0113061 0.0248618 0.0117241 0.0195077 0.0126108 0.0289813
9 2 2.89372 -14.3894 -15.1805 0.229023 0.0142693 0.0214009 0.0267152 0.00931916 0.0283154 0.0129228 0.029402 0.0133383 0.0317398 0.0150376 0.0430266
10 2 -14.2611 2.66715 7.51114 0.0478195 0.0266035 0.00825765 0.00605448 0.00818492 0.0117589 0.00799015 0.0258897 0.00875759 0.0150482 0.00999649 0.0251819
11 2 -8.51249 0.258563 -0.599752 0.00524829 0.00746391 0.00367711 0.00804121 0.00606638 0.0133708 0.00615519 0.0216748 0.00956007 0.0186208 0.0115493 0.0237653
12 2 -11.2272 -12.3247 5.26811 0.0815362 0.0387321 0.0067962 0.00960917 0.00733661 0.0115775 0.0125922 0.0430062 0.0162688 0.0215778 0.0163998 0.0416815
13 2 -20.7689 3.28912 -5.18313 0.218854 0.0553871 0.0223754 0.0368981 0.0150888 0.0352452 0.0198035 0.0479133 0.0187742 0.0383001 0.0143274 0.0585857
14 2 -0.60367 -12.5316 2.61152 0.0154128 0.00437737 0.0064414 0.0130353 0.00729694 0.0122765 0.0125858 0.0330166 0.0148359 0.0170589 0.0109064 0.0383066
15 2 6.26589 17.6103 6.58637 0.190511 0.0397705 0.0169739 0.0161681 0.00939697 0.0274899 0.0143301 0.0272836 0.0142929 0.0192016 0.0111757 0.0268437
16 2 3.39983 -7.46597 -7.05363 0.0071314 0.00281633 0.00749972 0.00812976 0.00498233 0.0134434 0.0106066 0.0292233 0.0133229 0.022166 0.0162742 0.030202
17 2 18.9987 4.52419 1.57214 0.127605 0.0392405 0.0105337 0.0170288 0.00599229 0.0114966 0.0101767 0.0277565 0.0121342 0.0212305 0.0148547 0.0326048
18 2 0.980692 8.64797 1.66051 0.00737287 0.00421363 0.0044804 0.014197 0.00614992 0.0108735 0.015425 0.0284062 0.0109748 0.0128389 0.0191155 0.0397828
19 2 7.52556 -0.58696 18.547 0.182765 0.0556856 0.0182091 0.0175136 0.0125623 0.0211284 0.016583 0.0370047 0.0144276 0.028394 0.019442 0.0401597
20 2 13.9322 -7.82112 -13.8098 0.227571 0.0477009 0.0130931 0.0269942 0.00844356 0.0131961 0.0105709 0.0194552 0.0150889 0.0296593 0.0171483 0.0253659
21 2 -6.91418 -16.7276 10.7693 0.235103 0.0473428 0.022497 0.0424513 0.0177234 0.0468941 0.0231698 0.0580353 0.0226854 0.035895 0.0274141 0.0644264
22 2 -5.52078 -11.6918 -1.2696 0.0106198 0.00125484 0.00798421 0.00817704 0.0065875 0.0133316 0.00881476 0.0421966 0.0127679 0.0176947 0.0195327 0.0470037
23 2 6.47533 -18.6624 4.05397 0.210336 0.0616978 0.0219722 0.022387 0.00709423 0.0204495 0.015242 0.0477734 0.0180215 0.0301322 0.0244576 0.0459278
24 2 -8.20126 0.054667 -18.2317 0.198352 0.0472818 0.0199734 0.0306552 0.00980782 0.0283415 0.0133292 0.0660361 0.0250999 0.032438 0.0218363 0.0736449
25 2 9.11173 -0.428664 -17.7259 0.227393 0.0517686 0.0188713 0.0238989 0.0130238 0.0334151 0.0180666 0.0230843 0.0177521 0.028656 0.0236966 0.0343718
26 2 11.534 -14.3426 6.64864 0.176652 0.0266692 0.0216439 0.020424 0.00582606 0.0172571 0.011181 0.0440404 0.0133609 0.0275672 0.0175877 0.055447
27 2 -7.75005 -0.920667 4.46312 0.00442073 0.00742389 0.00711674 0.0109022 0.00523463 0.00607271 0.0100796 0.0262428 0.0139835 0.0140697 0.0162749 0.024189
28 2 2.13541 -10.7501 -10.7556 0.0289667 0.009178 0.00849029 0.011231 0.00608921 0.0131565 0.0125958 0.0329813 0.0110562 0.0251165 0.0129616 0.0321386
29 1 12.8923 13.695 -2.25169 0.139011 0.0364172 0.0142335 0.0153866 0.00963969 0.0191321 0.0139073 0.0260779 0.0143972 0.0229905 0.0113061 0.0218222
30 2 6.50729 -6.33041 -5.37188 0.00443973 0.00712848 0.00656029 0.00922912 0.00591037 0.0125828 0.0115185 0.0305512 0.0137816 0.0227883 0.0123093 0.0390202
31 1 -11.9094 1.63572 15.4421 0.191363 0.0412777 0.0178064 0.0308107 0.0125205 0.0338825 0.0182697 0.0534833 0.0128191 0.0243071 0.0165687 0.0463391
32 2 5.59765 2.56497 9.72546 0.0106798 0.00459621 0.0063314 0.0126594 0.00567228 0.012784 0.0091544 0.0592758 0.0124543 0.0274352 0.0139428 0.0718991
33 1 -16.0936 14.5158 1.81729 0.208917 0.0270617 0.0168813 0.0251875 0.00951376 0.0223692 0.0113091 0.0277578 0.0104852 0.0301256 0.0194108 0.0380979
34 1 -0.467212 -0.0953352 -11.6789 0.00519306 0.00932863 0.00390842 0.0108647 0.00562359 0.0200152 0.00933806 0.0496071 0.0155293 0.0229786 0.0143399 0.0750578
35 1 -10.5764 -6.32601 -5.09977 0.0101147 0.0112724 0.00272935 0.0123809 0.00563759 0.0106196 0.0127811 0.048878 0.0122147 0.0192753 0.0160668 0.0360145
36 2 -6.77612 -14.5454 0.0913339 0.0471099 0.0160975 0.00554903 0.00880695 0.00650914 0.0129315 0.0102235 0.0249921 0.0127926 0.0197513 0.0141034 0.032726
37 2 12.197 -3.02866 3.55189 0.00660048 0.00650078 0.00318158 0.00866952 0.00419373 0.0172278 0.0154276 0.0455727 0.0126491 0.0254375 0.0150326 0.0542789
38 1 -15.0602 -4.25119 -11.3759 0.192372 0.0541376 0.0214632 0.0179021 0.0150529 0.0262755 0.0184812 0.0419924 0.0140501 0.0265707 0.0155919 0.0572029
39 1 14.1365 2.55636 -3.24622 0.0147596 0.00931975 0.00593203 0.00930078 0.00553407 0.00828574 0.0113633 0.030995 0.0104217 0.0186722 0.0119234 0.0283805
40 1 2.95238 -9.9418 -9.2815 0.00998689 0.00921429 0.0046992 0.00980911 0.00584439 0.0113078 0.00904821 0.0267081 0.0116218 0.0205084 0.01252 0.029383
41 1 3.53658 -8.08852 16.97 0.189876 0.0778464 0.00987195 0.0512327 0.00895906 0.0472662 0.0131155 0.0779877 0.0256727 0.0375446 0.0286238 0.102737
42 1 9.01671 2.10651 9.28399 0.00535885 0.00260862 0.0040217 0.0136938 0.00620043 0.0116338 0.0166329 0.0542851 0.0131562 0.0272132 0.0107529 0.0636009
43 2 5.04321 -17.3156 -6.54812 0.18045 0.041111 0.0133683 0.0174899 0.00491442 0.0117196 0.0102223 0.0236559 0.0189664 0.0234255 0.0132371 0.0274809
44 2 17.1318 4.04778 -1.53776 0.0726742 0.0346527 0.005911 0.00989109 0.00494903 0.0115291 0.0126351 0.0293826 0.0132986 0.0162569 0.0134682 0.025991
45 2 6.31664 -7.9193 -8.06046 0.00384185 0.00466265 0.00566998 0.00826889 0.00406232 0.0106473 0.00959295 0.0298535 0.0150871 0.0265731 0.0156565 0.0289792
46 2 13.4835 -10.0698 -10.1201 0.174344 0.034034 0.0127565 0.0206782 0.00654295 0.013582 0.0102827 0.0220079 0.0109759 0.0157105 0.0171388 0.0267291
47 1 3.315 2.00397 -1.05688 0.0109525 0.00710991 0.00473158 0.019038 0.00612613 0.0111844 0.00918357 0.0319901 0.0130244 0.0236079 0.0145905 0.0321619
48 1 3.92775 14.9949 7.34687 0.108118 0.0339338 0.0109965 0.0133726 0.00632847 0.0116868 0.00802255 0.0260684 0.015689 0.0207238 0.014138 0.0232522
49 1 -0.379467 3.14498 -7.24473 0.0060404 0.00918728 0.00428163 0.0103125 0.00521778 0.0103622 0.0138889 0.0313693 0.0117886 0.0187417 0.0177578 0.0288247
50 1 -3.47418 -13.7982 -2.74784 0.00850656 0.0100032 0.0060937 0.0148113 0.00583425 0.0131443 0.0116732 0.0323926 0.0134422 0.0219108 0.0115986 0.0356889
51 1 -7.31851 6.04723 2.33155 0.00606765 0.00643831 0.00615317 0.0103087 0.0053559 0.0146098 0.00998636 0.0210873 0.0103953 0.019519 0.0149382 0.0322174
52 1 19.0226 3.29971 -12.3719 0.317564 0.0568801 0.038074 0.0262984 0.0222783 0.0328673 0.0188584 0.0441305 0.0236466 0.0318202 0.0257777 0.0520968
53 1 -1.17541 12.4094 5.20369 0.00836145 0.00918154 0.00845931 0.0135732 0.00329808 0.0105124 0.00926095 0.0297056 0.0100026 0.0173939 0.0125629 0.0407286
54 1 3.25759 -21.0087 -4.69775 0.280225 0.0301833 0.0366559 0.0337349 0.0123122 0.0375883 0.0194853 0.0287392 0.0168781 0.0413877 0.0255699 0.0434863
55 1 -5.13246 3.46244 -2.43352 0.00887636 0.00790768 0.00382463 0.00551168 0.00681869 0.00931415 0.0124109 0.01788 0.00658511 0.0163408 0.013471 0.0209459
56 2 -4.1368 -9.28891 0.365157 0.00745067 0.00693337 0.00639972 0.0111484 0.010822 0.012013 0.0144382 0.0376793 0.0156266 0.0207844 0.0167486 0.039093
57 2 12.3355 10.0722 3.51258 0.103079 0.0354199 0.00954537 0.0185177 0.00594216 0.0190658 0.00900551 0.0312671 0.00923434 0.0176981 0.0166963 0.031669
58 2 10.9295 12.622 10.6335 0.213076 0.0359384 0.0196991 0.00856349 0.0102753 0.0226601 0.0158838 0.0320204 0.0125591 0.0278068 0.0163224 0.03024
59 2 14.8739 0.642096 5.97047 0.0317318 0.0123948 0.00843188 0.00814286 0.00990313 0.00997882 0.00962731 0.0262549 0.0148996 0.0155305 0.0121916 0.0278206
60 2 12.9881 2.89552 -12.803 0.125795 0.0304421 0.00835263 0.0213146 0.00983982 0.0117947 0.0116217 0.0294345 0.0119254 0.0192377 0.0141626 0.0241606
61 2 -0.237061 -12.7697 13.6072 0.194749 0.0692285 0.0129475 0.0509661 0.00992852 0.0524396 0.0147466 0.0695103 0.0169342 0.0422628 0.0262503 0.0797482
62 1 -20.0241 -9.29316 0.792074 0.251742 0.0735728 0.0285324 0.0249194 0.0155411 0.0145464 0.0162224 0.0321374 0.0174069 0.0355372 0.0180912 0.0365057
63 1 -5.57063 -1.54769 -21.5319 0.316357 0.0783765 0.0440417 0.0670048 0.0108531 0.0621796 0.0197427 0.0713219 0.0367627 0.0602964 0.0335524 0.0950726
64 1 -11.8374 -1.85932 15.0445 0.158333 0.0297332 0.0171234 0.0198762 0.0084634 0.0201006 0.0125276 0.0387774 0.0186248 0.0244971 0.022081 0.037229
65 2 4.13388 -18.1893 -0.976953 0.178727 0.0288093 0.0143107 0.0122065 0.0103667 0.0201108 0.0145987 0.0227638 0.0103067 0.0287615 0.0154406 0.0271417
66 1 1.09621 -3.29314 4.83904 0.00624508 0.00543625 0.00615541 0.0135496 0.00509127 0.0200014 0.010798 0.0595904 0.0127271 0.0307497 0.0120142 0.0722279
67 1 9.34924 -16.2918 3.56895 0.164946 0.0500071 0.0124078 0.0124804 0.00899029 0.0199017 0.0146265 0.0456506 0.0136461 0.0217991 0.0243955 0.0473284
68 1 -14.4275 -9.18308 8.46984 0.147626 0.0160954 0.0162432 0.018515 0.00559704 0.0159618 0.0118061 0.0326755 0.0115953 0.0249303 0.0173005 0.0467721
69 1 -4.66532 -13.9333 6.1585 0.0150029 0.0076693 0.00559652 0.00788409 0.0062651 0.0162839 0.0119101 0.0397198 0.0170593 0.0238176 0.0146401 0.0537505
70 1 11.7446 -7.33659 -9.54681 0.0534655 0.0167418 0.00581163 0.00968454 0.00593966 0.0103457 0.00888518 0.0224918 0.011308 0.023966 0.0129076 0.0200257
71 1 20.1772 3.60262 -2.76414 0.177854 0.0592356 0.013622 0.0174193 0.00550862 0.0188053 0.00978769 0.0363258 0.0155115 0.0245095 0.0190834 0.0367335
72 1 5.55965 -7.1007 -13.0431 0.0515026 0.0225918 0.00881838 0.00718645 0.00407533 0.0120746 0.00982495 0.0279671 0.0133492 0.0215296 0.0128488 0.0283339
73 2 6.4092 -1.97372 -18.0032 0.193259 0.075691 0.0164031 0.0213181 0.00946566 0.0243961 0.010632 0.0375959 0.0143936 0.0239112 0.0218424 0.0575918
74 2 -3.6399 -6.35347 1.9301 0.00852275 0.00733197 0.00504684 0.0145703 0.0049261 0.01495 0.012014 0.0446174 0.0131541 0.0234613 0.0154381 0.0611679
75 2 -0.859251 -9.78237 -9.90815 0.0197684 0.00921974 0.00340787 0.0139048 0.00583688 0.0120103 0.0117343 0.0405946 0.0156506 0.0250521 0.0197868 0.0387884
76 2 7.204 -13.7239 -3.68926 0.0727285 0.0268979 0.00875705 0.0117699 0.0057507 0.0116733 0.0142919 0.0315994 0.0143844 0.0223246 0.0105711 0.0334977
77 1 4.84567 10.944 11.7855 0.104376 0.032095 0.00814108 0.0177261 0.00886965 0.011881 0.0101096 0.0271442 0.0110634 0.0165399 0.00978578 0.0305555
78 1 2.75833 -15.4203 0.845838 0.0518781 0.0269838 0.00639286 0.0114288 0.00662399 0.0139787 0.0102416 0.0239592 0.0119332 0.0191824 0.0164255 0.0301127
79 1 0.211941 -8.77156 2.17217 0.00618095 0.00451131 0.00302439 0.0151263 0.0070454 0.0187661 0.013234 0.0486356 0.0159704 0.0280963 0.0162329 0.0569224
80 1 -10.5541 -16.6098 -4.46463 0.234975 0.0141344 0.01812 0.0105309 0.0134089 0.0141663 0.0163252 0.0333792 0.0173754 0.0299321 0.0164 0.0283223
81 1 7.8929 -9.98368 -14.3365 0.167407 0.0456695 0.016673 0.0215599 0.00839225 0.0217112 0.0104117 0.0384093 0.010362 0.0236481 0.0153633 0.041394
82 1 -0.153898 -9.20594 -8.01281 0.00592393 0.00613201 0.00690997 0.0133499 0.00620841 0.0103319 0.0117065 0.0351494 0.0126589 0.0176724 0.0159668 0.0378373
83 1 4.15299 15.25 12.3099 0.225957 0.0624918 0.0169616 0.0288504 0.0123124 0.0203803 0.0143758 0.0309853 0.0118206 0.0277758 0.0179596 0.0428951
84 2 8.61043 -15.0917 5.33673 0.113299 0.0385154 0.00919516 0.0155489 0.00516684 0.0178818 0.0155893 0.0419763 0.0142976 0.0257137 0.0168427 0.0494069
85 2 -16.9384 -3.77548 6.89926 0.15218 0.0389084 0.0092746 0.0146198 0.00900558 0.0096328 0.0107013 0.0325628 0.0120128 0.0231926 0.0147936 0.036589
86 2 0.460046 0.980684 -10.6478 0.00836224 0.0096341 0.00749266 0.0114542 0.00694105 0.0140714 0.00995153 0.0474389 0.0162742 0.0232425 0.0171433 0.063726
87 2 5.23525 -13.4078 -13.4194 0.164322 0.0239665 0.0151231 0.0171321 0.00540868 0.0237375 0.0147037 0.0294978 0.0146125 0.0211041 0.0135226 0.0361478
88 1 -9.37554 17.6348 -12.9665 0.306533 0.0283991 0.0314528 0.0182918 0.018582 0.0315781 0.0166813 0.0382724 0.0161807 0.0383106 0.0185211 0.0360216
89 1 -11.3119 -14.6787 1.69038 0.151347 0.036977 0.0105551 0.0188487 0.00728011 0.02271 0.015463 0.0398106 0.0157838 0.0172623 0.0163617 0.0377749
90 1 -15.0729 17.4878 0.705637 0.280581 0.0458275 0.0282372 0.0442804 0.0225338 0.0231728 0.0334685 0.0381116 0.0184677 0.0471196 0.0319761 0.0515126
91 1 10.9806 10.4018 2.74219 0.0655634 0.0224675 0.00769028 0.0121263 0.00885425 0.0205777 0.0114433 0.0260447 0.0104364 0.0178836 0.0112613 0.0315915
92 1 18.5475 -3.19319 -0.936818 0.120336 0.0432637 0.00837247 0.0161883 0.00494532 0.0120882 0.0134998 0.0303753 0.0111686 0.0195808 0.0132331 0.0277174
93 1 18.3183 -4.68409 6.51188 0.181666 0.0518924 0.0167614 0.0147552 0.00893807 0.0156396 0.0108711 0.0330355 0.0133683 0.0261278 0.0185676 0.0281483
94 1 -4.07017 -15.8639 -5.02228 0.0919379 0.0284355 0.00956613 0.0090846 0.00719229 0.0144351 0.0112421 0.0266382 0.0108197 0.0197808 0.0123856 0.028737
95 1 11.0953 13.9649 -10.1261 0.206457 0.0405196 0.0151809 0.0191564 0.00965116 0.0190656 0.0128557 0.026204 0.0124191 0.0228905 0.0147161 0.0302138
96 2 3.08811 -8.92393 4.44492 0.0115225 0.00493812 0.00850267 0.014659 0.0067737 0.0113374 0.0151369 0.0510334 0.0167951 0.0242966 0.0162522 0.0634319
97 2 0.650227 -6.91596 5.52244 0.0100852 0.00342369 0.00675414 0.0136374 0.0072061 0.0164615 0.0122348 0.0523954 0.015652 0.0228489 0.00995167 0.065591
98 1 6.10524 -15.5591 -0.969256 0.0894322 0.0230944 0.00548237 0.0112011 0.00680153 0.0112409 0.00925893 0.024949 0.0154866 0.0231913 0.0130464 0.0313203
99 1 -7.2197 -12.2968 3.15057 0.00801944 0.00903478 0.00450894 0.0139169 0.00613529 0.00997091 0.0108864 0.0332167 0.0162508 0.0201082 0.0134317 0.0356968
100 2 -13.4545 14.918 -4.75963 0.173606 0.039749 0.0112511 0.0198879 0.00887182 0.0145149 0.0110088 0.0289947 0.0143607 0.0235448 0.0121073 0.0211033
101 1 10.5502 -9.6025 -16.1469 0.255394 0.0769353 0.0230422 0.0268247 0.0137101 0.024465 0.0164499 0.0405807 0.020841 0.0399977 0.0201284 0.0457113
102 1 6.80491 7.86665 19.273 0.281285 0.0515255 0.0333123 0.0281488 0.0134311 0.0312625 0.0190099 0.0364873 0.0185937 0.0321537 0.0247131 0.0502405
103 1 2.07231 1.85542 -15.4285 0.059838 0.0438573 0.00919553 0.0269075 0.00692143 0.0195935 0.0152316 0.0648983 0.0146839 0.0361539 0.0177509 0.0858219
104 1 21.1912 3.65032 5.30538 0.211442 0.0528426 0.0167719 0.0260896 0.0125089 0.0184789 0.0158094 0.0353371 0.0121238 0.0267622 0.0145075 0.0409543
105 2 -0.946129 6.6273 -11.3133 0.00585521 0.00426129 0.0042162 0.0119215 0.00475599 0.0222401 0.0135353 0.0538263 0.0133977 0.0309495 0.00981763 0.0644423
106 1 8.75052 -15.3852 8.62447 0.13262 0.044735 0.0107619 0.0179847 0.00587248 0.0163892 0.0119456 0.0381438 0.0120355 0.0297368 0.0156897 0.0433468
107 2 4.02266 -15.6721 7.05788 0.0913851 0.0444748 0.00778307 0.0134169 0.00748852 0.0207811 0.0065315 0.0481299 0.0118748 0.0258704 0.0167628 0.045857
108 2 2.7433 -0.0410345 -8.6204 0.0100145 0.00566074 0.00300421 0.012992 0.00374033 0.0100405 0.00986505 0.0351084 0.0145416 0.01556 0.013593 0.0413492
109 2 6.69966 -11.4559 0.86224 0.00860395 0.0107323 0.00965539 0.0174664 0.00974664 0.010812 0.0147517 0.0586213 0.0157365 0.0238253 0.0140467 0.0628387
110 2 0.617211 -18.8674 -1.12699 0.182877 0.0406811 0.0187528 0.014806 0.0136059 0.0222407 0.014805 0.0198621 0.0134952 0.0291502 0.0156922 0.0307856
111 2 1.95454 -10.292 -16.571 0.188798 0.032789 0.0176971 0.0187371 0.0116003 0.0276814 0.0140855 0.0422375 0.0180549 0.0377202 0.0202195 0.0456858
112 1 -7.88101 -10.2267 1.12404 0.00473237 0.00953839 0.00748938 0.0104255 0.0080121 0.0131091 0.0129309 0.0268062 0.0126065 0.0210661 0.0152137 0.0303379
113 1 -10.4387 13.7786 -7.15364 0.0892461 0.0280016 0.00817582 0.0104574 0.00708741 0.0141169 0.0149664 0.0296698 0.0117291 0.0210174 0.0139506 0.0248701
114 2 -14.9327 8.89896 -7.3259 0.0871841 0.0337903 0.00488414 0.0211793 0.00647143 0.0267042 0.0155968 0.0468002 0.0129061 0.0275495 0.0114632 0.0614534
115 2 20.8411 2.32186 -5.8384 0.247496 0.0650555 0.0236671 0.0232086 0.0141318 0.0190476 0.00839917 0.0420057 0.0199458 0.0281043 0.019255 0.0458074
116 1 -7.93156 -0.467056 -9.56644 0.00486924 0.00485671 0.00548156 0.0117871 0.00876603 0.0224514 0.01221 0.0518252 0.0172308 0.0261166 0.0155282 0.0813303
117 1 1.64294 14.5445 -14.3871 0.227766 0.0554248 0.0217761 0.0446273 0.0221169 0.05399 0.0180516 0.0618436 0.0212084 0.0395405 0.0250855 0.0700222
118 1 0.469408 7.21299 -10.5783 0.0086077 0.00666514 0.00573316 0.0107947 0.00663597 0.0230022 0.016972 0.0484726 0.011378 0.0258185 0.0111283 0.0531725
119 1 9.44946 -10.1157 10.7856 0.0130717 0.0158897 0.00734479 0.00942814 0.0053217 0.0177024 0.0104994 0.0394644 0.0138562 0.0216995 0.0161061 0.0536396
120 1 2.17703 4.53959 22.4052 0.303483 0.0456417 0.0374172 0.0281899 0.016122 0.0367593 0.0200605 0.061825 0.0418625 0.0432486 0.0341087 0.0696962
121 1 6.26697 -18.7459 5.9318 0.18768 0.0732686 0.0165479 0.0278847 0.00982523 0.0220282 0.0179986 0.0492593 0.0161666 0.0340184 0.022695 0.0514235
122 1 -15.6343 -10.2366 2.94585 0.142014 0.0450072 0.0103557 0.0154724 0.00615935 0.0169312 0.0122031 0.0258551 0.016601 0.0199497 0.0153524 0.033202
123 1 -16.4164 -5.0828 10.3607 0.188879 0.0424584 0.00906775 0.0217697 0.00684829 0.0146328 0.0134999 0.0401362 0.015151 0.0274588 0.021239 0.0466161
124 2 -9.4344 -7.30411 5.87882 0.00412644 0.0035914 0.00237447 0.0171177 0.00806454 0.0116222 0.0114006 0.038023 0.0138971 0.0235337 0.0179691 0.0565488
125 2 16.71 10.3378 -8.16229 0.208694 0.0621727 0.0196535 0.020452 0.00872091 0.0147391 0.013113 0.0331532 0.0129166 0.0266101 0.0202798 0.0385858
126 2 -8.75849 16.8931 -6.60293 0.18051 0.0243483 0.012858 0.0105574 0.00998325 0.0192358 0.0118868 0.0259716 0.0102425 0.0220106 0.015383 0.0273242
127 2 4.70369 -1.92884 -15.6126 0.1013 0.0517105 0.00629198 0.0183197 0.00605375 0.0202124 0.00849013 0.0451084 0.00988226 0.0241825 0.0196016 0.0623576
128 2 -11.621 12.3947 -5.90093 0.0657002 0.0234032 0.00819389 0.0125484 0.00755018 0.0176442 0.0128714 0.0360518 0.0126619 0.0186574 0.0132701 0.0348478
129 2 21.3254 3.43273 3.39128 0.214672 0.0584122 0.0217247 0.0249505 0.0125112 0.0159362 0.0133532 0.0344602 0.0152564 0.029267 0.0178269 0.0404892
130 1 -11.5415 -9.07631 14.0327 0.207439 0.0690908 0.0203832 0.0331235 0.0171636 0.0382413 0.0199036 0.0627111 0.0256401 0.0436938 0.0234144 0.0721284
131 1 -15.0649 15.8266 6.05105 0.245973 0.0509788 0.0268971 0.0239925 0.0203889 0.0319321 0.021235 0.0312639 0.0212668 0.0385751 0.0297526 0.0399976
132 1 16.7226 -2.30035 5.33267 0.08063 0.0296618 0.0063928 0.0135032 0.00667136 0.0147679 0.00786533 0.0285045 0.0113393 0.0156836 0.0126687 0.0222645
133 1 5.96979 -15.9777 -16.8671 0.311055 0.0463196 0.040067 0.0449743 0.0198718 0.0432058 0.0262998 0.0498282 0.0298828 0.046954 0.0235778 0.0581235
134 2 2.13998 -4.55494 -7.57407 0.00290207 0.00756635 0.00526857 0.0071949 0.00643906 0.00810161 0.00728727 0.0279413 0.0111488 0.0230884 0.015011 0.0266567
135 2 8.70181 -3.87416 10.6442 0.0035821 0.00677103 0.00600043 0.0141147 0.00605968 0.0152888 0.0075263 0.0507517 0.0109238 0.0225034 0.0121768 0.0571791
136 1 -1.70935 -6.72799 -8.80218 0.00516634 0.00398111 0.00477317 0.0112811 0.00587614 0.0142605 0.0134655 0.0401261 0.0138574 0.0247248 0.0202366 0.0493257
137 1 10.5664 -8.5129 7.53563 0.00350133 0.00949081 0.0113683 0.0139706 0.00812802 0.0194413 0.0136895 0.042228 0.0144035 0.0196984 0.0172387 0.0490106
138 1 2.16297 -7.97186 5.8325 0.00742081 0.00189633 0.00630091 0.00970783 0.00699748 0.0168967 0.0109614 0.0547698 0.0124965 0.0229896 0.013632 0.0665013
139 1 -21.4207 -1.49966 -2.40158 0.225487 0.0570847 0.0187999 0.0388287 0.00958022 0.0352872 0.0162173 0.0593703 0.0196921 0.0374098 0.0162331 0.0659927
140 1 1.40258 -7.8417 -4.70146 0.0132993 0.00310321 0.00652121 0.00679545 0.00484578 0.00889813 0.00905314 0.0331478 0.013455 0.018696 0.0146832 0.0354668
141 2 -11.258 8.40337 -3.18271 0.00739693 0.0114015 0.00500711 0.00682816 0.00329004 0.0146052 0.010248 0.0235969 0.0109014 0.0205632 0.0154593 0.0262296
142 2 -9.23874 -14.3919 -1.61575 0.109383 0.0288436 0.00633792 0.0116092 0.00908973 0.0147879 0.0112972 0.0302432 0.0143485 0.0237632 0.0107944 0.036191
143 2 -15.0172 2.73669 16.5689 0.293802 0.0653682 0.0342106 0.0561015 0.0148262 0.0475357 0.0278562 0.0617796 0.0270217 0.039457 0.0260169 0.0641879
144 2 -0.647462 17.2819 -11.7412 0.265121 0.0416661 0.0250199 0.0323559 0.0199259 0.0387454 0.0169282 0.0485927 0.0151059 0.0357719 0.0182874 0.0562474
145 1 15.3016 16.8701 -4.62798 0.310395 0.0614852 0.0228427 0.0359953 0.0223485 0.0300575 0.0152675 0.0324148 0.0154507 0.0323216 0.0181422 0.0387925
146 1 19.4281 -9.35902 -9.50932 0.29595 0.0239125 0.0226493 0.0184763 0.0205634 0.0289498 0.0114259 0.0222925 0.0141819 0.0261166 0.0243301 0.0380382
147 1 -9.20447 -16.9099 8.20457 0.184974 0.0367502 0.01439 0.0209666 0.0116574 0.0269483 0.0167215 0.0449559 0.013824 0.0306618 0.0196236 0.0565085
148 1 14.3699 11.9119 -1.78935 0.134063 0.0351843 0.0130529 0.0150392 0.00807143 0.0191281 0.0129157 0.0293593 0.0138476 0.0238235 0.0107263 0.0230626
149 1 -18.8885 7.58994 -12.9526 0.299774 0.0827433 0.028083 0.0612109 0.0257549 0.0648478 0.0212171 0.0543533 0.0237524 0.0394293 0.0229309 0.0597588
150 1 -1.43329 12.3743 2.67762 0.00772046 0.00743766 0.00523201 0.01139 0.00599339 0.0122556 0.0108525 0.0337518 0.0124158 0.0180968 0.012442 0.0437348
151 1 11.1231 -18.3424 4.26674 0.274329 0.0539961 0.0345427 0.0349007 0.0167086 0.0268042 0.0246658 0.046237 0.0256411 0.0382747 0.0336226 0.0629168
152 1 -6.35916 0.146917 3.61292 0.00288759 0.00682539 0.00630986 0.00977587 0.0038162 0.00718688 0.00994087 0.0276025 0.0127687 0.0181211 0.0127452 0.0276424
153 1 7.5686 -14.6553 15.53 0.252029 0.0607802 0.0327177 0.0282624 0.0172162 0.0306847 0.0204608 0.0373734 0.0238823 0.0193287 0.0184823 0.0514572
154 2 -1.54951 -1.61851 -19.1453 0.203522 0.0613414 0.0213334 0.0350881 0.0031684 0.0323124 0.013977 0.0666276 0.0197084 0.0429859 0.0258033 0.0969083
155 2 -12.1995 -16.0427 10.1519 0.279044 0.0474814 0.0216224 0.0390859 0.0146782 0.044788 0.0256177 0.0591378 0.0197833 0.034419 0.0281513 0.0674608
156 2 6.18367 -10.4964 -17.4691 0.240272 0.0553916 0.0236031 0.0291324 0.0150574 0.0386395 0.0159613 0.0549645 0.0177018 0.0470145 0.0183118 0.0546334
157 2 -0.43947 -11.4044 8.20594 0.00291845 0.0100041 0.00566304 0.00814187 0.00519387 0.0200775 0.00964715 0.0549393 0.0113883 0.0179751 0.0123792 0.0667001
158 2 -11.7644 -6.16038 -11.1363 0.13076 0.0417488 0.00924593 0.0241628 0.0106309 0.0222941 0.0108217 0.0478189 0.0184726 0.023076 0.0185621 0.0714803
159 1 14.4752 3.86205 -13.6589 0.179525 0.0427012 0.0161616 0.0277595 0.0136263 0.0162873 0.0119396 0.0278126 0.0157398 0.0257455 0.013579 0.0279998
160 1 12.2416 -11.1272 16.9076 0.25122 0.0631223 0.0312339 0.0247287 0.0151733 0.0244662 0.0220647 0.0432994 0.0319416 0.0247194 0.0249177 0.0619976
161 1 10.7248 -3.44196 16.4591 0.141997 0.0292006 0.0148754 0.0172921 0.0097716 0.0199955 0.0165165 0.0439919 0.0193686 0.0215764 0.0171592 0.0534331
162 1 9.00266 -14.6112 -0.2906 0.0983692 0.0347846 0.00657699 0.00652566 0.00774038 0.0113908 0.0130324 0.0368333 0.0161155 0.0151764 0.0179566 0.0427942
163 2 -6.49992 -1.81389 -18.0466 0.20295 0.0542228 0.0138732 0.0313618 0.00753407 0.0311445 0.0132685 0.0656823 0.0206991 0.0326967 0.0201146 0.0758626
164 2 -9.05951 6.24884 12.7448 0.120505 0.0495893 0.0066256 0.0187166 0.00906566 0.0233139 0.0139992 0.0449494 0.0137656 0.023036 0.019282 0.0315619
165 1 8.91448 -17.5912 6.21609 0.235592 0.0527919 0.0239257 0.0251234 0.00666679 0.0224493 0.0130416 0.0414155 0.0156426 0.0303477 0.0235425 0.0498775
166 1 1.08096 -14.5634 -2.81769 0.0251181 0.0144688 0.0107927 0.00889681 0.0087065 0.00958045 0.00941738 0.0223088 0.011067 0.0182434 0.0138818 0.0275307
167 1 -2.21407 17.5101 -12.1143 0.261314 0.0577627 0.0300204 0.0388058 0.0184453 0.0429288 0.022352 0.0516793 0.0199516 0.0398552 0.0240382 0.0631769
168 1 -2.13608 -8.47356 -13.9852 0.104102 0.0450922 0.00690511 0.0211401 0.0100088 0.0285412 0.0164691 0.0465011 0.0177097 0.0247698 0.0155599 0.0573738
169 1 -11.8757 -17.7538 -7.15208 0.349445 0.0284408 0.0350612 0.0197753 0.0143835 0.0270321 0.0290971 0.0409489 0.0252824 0.0409422 0.0297577 0.057861
170 1 -4.62546 8.63649 7.4568 0.0148373 0.0139155 0.00845155 0.0102017 0.00833488 0.00616258 0.00953855 0.025755 0.0133626 0.0124913 0.0149415 0.0358811
171 1 -19.6428 1.12428 -2.37385 0.144008 0.0404549 0.0106846 0.0249519 0.009208 0.0257377 0.0169529 0.050173 0.013138 0.0319703 0.0148253 0.0642457
172 2 2.03773 -5.88903 -13.4844 0.0213213 0.0192196 0.00963947 0.0145532 0.00461461 0.0103519 0.0128411 0.037312 0.0135645 0.0213877 0.017929 0.0445269
173 2 -13.1741 -8.77708 13.2064 0.224509 0.0647668 0.0254266 0.0305551 0.0128782 0.0342831 0.0233455 0.0503256 0.0281492 0.0326301 0.0260528 0.0549892
174 2 -18.4039 1.82671 -3.51212 0.107615 0.0398687 0.00892972 0.0245708 0.00837078 0.0256594 0.0123378 0.0486065 0.0131128 0.027936 0.0146786 0.0606699
175 2 -8.08586 8.36632 5.37632 0.0102706 0.00809678 0.00467732 0.00669798 0.00461068 0.0115348 0.0115548 0.0244212 0.0108167 0.0191926 0.0151373 0.041764
176 1 -19.9464 8.11362 -0.818207 0.14678 0.0438377 0.0106588 0.0121463 0.00783553 0.0139885 0.00970482 0.0267054 0.0118576 0.0216135 0.0156267 0.0349026
177 1 -3.2828 -9.3133 4.22929 0.0162025 0.00656366 0.00732806 0.016281 0.00541883 0.0187207 0.0149312 0.0482374 0.0150557 0.0258089 0.0113636 0.0646393
178 1 6.29634 -6.78729 -2.14441 0.0091148 0.00726158 0.00470342 0.00910512 0.00513814 0.016815 0.0143475 0.0571615 0.0135674 0.0270064 0.0166933 0.0532634
179 1 10.4145 -8.37097 -8.20762 0.0297648 0.0137543 0.00663908 0.00880506 0.00530252 0.00895471 0.00990193 0.0256457 0.0111269 0.0223085 0.0114659 0.0268571
180 1 5.43594 7.90174 -20.4529 0.297934 0.0335584 0.0315962 0.0588505 0.0186777 0.0374433 0.0298633 0.0559348 0.0324666 0.0241786 0.025081 0.0518818
181 1 -12.7754 18.9569 -6.12714 0.287802 0.0265776 0.0311337 0.0161145 0.0140613 0.0215505 0.0232206 0.0411928 0.014708 0.0357096 0.0225578 0.0377031
182 2 -7.29231 3.69987 8.4697 0.00910957 0.007475 0.00619933 0.0120232 0.00500197 0.0134964 0.0145703 0.0395791 0.00845544 0.0214845 0.0144869 0.0428202
183 2 -0.801832 -0.334108 -5.29005 0.0118752 0.00635564 0.00617839 0.00996464 0.00732386 0.00742034 0.00909026 0.0212499 0.0108917 0.0130945 0.0112604 0.0301819
184 2 -4.62409 -2.2738 0.752152 0.00658464 0.00839674 0.00366001 0.011401 0.00657097 0.0115947 0.00928944 0.0245418 0.0113795 0.0192857 0.0124183 0.0344551
185 2 1.7642 -16.5711 0.392956 0.0819031 0.0310372 0.0067055 0.0131415 0.00795618 0.0151116 0.0098743 0.0190785 0.012645 0.0179738 0.0137019 0.025242
186 1 -1.41642 -0.536598 -7.11272 0.00890178 0.00395748 0.00701747 0.00712 0.00704456 0.012433 0.00755177 0.0271281 0.0128959 0.0156996 0.0122057 0.0379024
187 2 -13.1297 -5.02297 9.4044 0.073432 0.0277102 0.00927519 0.0148533 0.00911644 0.0125084 0.0115786 0.0334947 0.0127594 0.0203523 0.0152845 0.0439075
188 1 -11.425 -4.17303 0.370729 0.0124074 0.0104934 0.00617721 0.0118175 0.00525703 0.00757487 0.0086423 0.0311143 0.0104781 0.0199453 0.0123203 0.0368948
189 1 -12.6809 -5.10074 -10.0759 0.0994445 0.0368567 0.00885935 0.0204479 0.00867352 0.0149055 0.0116302 0.0465943 0.0154908 0.025327 0.0127317 0.0564896
190 1 -14.8936 10.3167 -12.2228 0.193289 0.0644914 0.00932932 0.0372868 0.0124718 0.0406165 0.017931 0.0505372 0.0116116 0.0349606 0.0201512 0.0508199
191 1 8.72044 9.12326 1.43246 0.0125343 0.00690641 0.00854613 0.0115471 0.0048801 0.0155282 0.00903821 0.0276558 0.0115884 0.0139712 0.0104059 0.0268706
192 1 -2.90643 9.136 -11.9819 0.0592883 0.0293073 0.00839084 0.021196 0.00544836 0.0280418 0.00994338 0.0564536 0.0116983 0.0272267 0.0134741 0.068839
193 1 -19.989 8.76584 9.30342 0.307526 0.0394033 0.0224826 0.0174007 0.0162226 0.0262916 0.0242846 0.0410449 0.0240524 0.0367674 0.0198657 0.0433853
194 1 -3.23955 -5.39013 10.6486 0.00506407 0.0101216 0.00791578 0.0110055 0.00530282 0.0152286 0.0108507 0.0441714 0.0121661 0.0313351 0.0193628 0.0582688
195 2 2.41858 -11.5311 2.99391 0.0136927 0.00963059 0.00317425 0.0150778 0.0088802 0.0133402 0.0153556 0.0440823 0.0139508 0.0216572 0.0161536 0.0552492
196 2 -11.5249 -0.937121 0.543124 0.00801318 0.00566702 0.00575925 0.0132752 0.00679104 0.0100508 0.00662167 0.0344053 0.0109021 0.020523 0.0139752 0.0382667