ITEM: TIMESTEP
5000000
ITEM: NUMBER OF ATOMS
5000
ITEM: BOX BOUNDS pp pp pp
0	54
0	54
0	54
ITEM: ATOMS id type xu yu zu Struct[1] Struct[2]
1 2 10.0958 0.393576 17.7377 2 1
2 2 11.6027 -3.42969 -7.01952 0 0.995253
3 2 6.78506 1.27901 4.23204 1 1
4 2 -8.13358 3.59008 14.1841 2 1
5 2 -0.161063 -4.02012 -13.5556 1 1
6 2 -4.06282 -9.37243 11.5592 2 1
7 2 -11.5499 -0.554295 -4.4003 1 0.763726
8 2 -8.94975 -5.28575 1.43321 0 0.996852
9 2 2.89372 -14.3894 -15.1805 2 1
10 2 -14.2611 2.66715 7.51114 2 1
11 2 -8.51249 0.258563 -0.599752 0 0.998446
12 2 -11.2272 -12.3247 5.26811 2 1
13 2 -20.7689 3.28912 -5.18313 2 1
14 2 -0.60367 -12.5316 2.61152 0 0.976897
15 2 6.26589 17.6103 6.58637 2 1
16 2 3.39983 -7.46597 -7.05363 0 0.924962
17 2 18.9987 4.52419 1.57214 2 1
18 2 0.980692 8.64797 1.66051 0 0.983635
19 2 7.52556 -0.58696 18.547 2 1
20 2 13.9322 -7.82112 -13.8098 2 1
21 2 -6.91418 -16.7276 10.7693 2 1
22 2 -5.52078 -11.6918 -1.2696 1 0.998769
23 2 6.47533 -18.6624 4.05397 2 1
24 2 -8.20126 0.054667 -18.2317 2 1
25 2 9.11173 -0.428664 -17.7259 2 1
26 2 11.534 -14.3426 6.64864 2 1
27 2 -7.75005 -0.920667 4.46312 0 0.968073
28 2 2.13541 -10.7501 -10.7556 2 0.9503
29 1 12.8923 13.695 -2.25169 2 1
30 2 6.50729 -6.33041 -5.37188 0 0.92727
31 1 -11.9094 1.63572 15.4421 2 1
32 2 5.59765 2.56497 9.72546 1 1
33 1 -16.0936 14.5158 1.81729 2 1
34 1 -0.467212 -0.0953352 -11.6789 1 1
35 1 -10.5764 -6.32601 -5.09977 1 0.994022
36 2 -6.77612 -14.5454 0.0913339 2 1
37 2 12.197 -3.02866 3.55189 1 1
38 1 -15.0602 -4.25119 -11.3759 2 1
39 1 14.1365 2.55636 -3.24622 0 0.990588
40 1 2.95238 -9.9418 -9.2815 0 0.99679
41 1 3.53658 -8.08852 16.97 2 1
42 1 9.01671 2.10651 9.28399 1 1
43 2 5.04321 -17.3156 -6.54812 2 1
44 2 17.1318 4.04778 -1.53776 2 1
45 2 6.31664 -7.9193 -8.06046 0 0.929451
46 2 13.4835 -10.0698 -10.1201 2 1
47 1 3.315 2.00397 -1.05688 0 0.994
48 1 3.92775 14.9949 7.34687 2 1
49 1 -0.379467 3.14498 -7.24473 0 0.996503
50 1 -3.47418 -13.7982 -2.74784 0 0.990875
51 1 -7.31851 6.04723 2.33155 0 0.992514
52 1 19.0226 3.29971 -12.3719 2 1
53 1 -1.17541 12.4094 5.20369 0 0.828975
54 1 3.25759 -21.0087 -4.69775 2 1
55 1 -5.13246 3.46244 -2.43352 0 0.999055
56 2 -4.1368 -9.28891 0.365157 0 0.786747
57 2 12.3355 10.0722 3.51258 2 1
58 2 10.9295 12.622 10.6335 2 1
59 2 14.8739 0.642096 5.97047 2 0.998534
60 2 12.9881 2.89552 -12.803 2 1
61 2 -0.237061 -12.7697 13.6072 2 1
62 1 -20.0241 -9.29316 0.792074 2 1
63 1 -5.57063 -1.54769 -21.5319 2 1
64 1 -11.8374 -1.85932 15.0445 2 1
65 2 4.13388 -18.1893 -0.976953 2 1
66 1 1.09621 -3.29314 4.83904 1 1
67 1 9.34924 -16.2918 3.56895 2 1
68 1 -14.4275 -9.18308 8.46984 2 1
69 1 -4.66532 -13.9333 6.1585 1 1
70 1 11.7446 -7.33659 -9.54681 2 1
71 1 20.1772 3.60262 -2.76414 2 1
72 1 5.55965 -7.1007 -13.0431 2 1
73 2 6.4092 -1.97372 -18.0032 2 1
74 2 -3.6399 -6.35347 1.9301 1 1
75 2 -0.859251 -9.78237 -9.90815 1 0.960905
76 2 7.204 -13.7239 -3.68926 2 1
77 1 4.84567 10.944 11.7855 2 1
78 1 2.75833 -15.4203 0.845838 2 1
79 1 0.211941 -8.77156 2.17217 1 1
80 1 -10.5541 -16.6098 -4.46463 2 1
81 1 7.8929 -9.98368 -14.3365 2 1
82 1 -0.153898 -9.20594 -8.01281 0 0.714874
83 1 4.15299 15.25 12.3099 2 1
84 2 8.61043 -15.0917 5.33673 2 1
85 2 -16.9384 -3.77548 6.89926 2 1
86 2 0.460046 0.980684 -10.6478 1 1
87 2 5.23525 -13.4078 -13.4194 2 1
88 1 -9.37554 17.6348 -12.9665 2 1
89 1 -11.3119 -14.6787 1.69038 2 1
90 1 -15.0729 17.4878 0.705637 2 1
91 1 10.9806 10.4018 2.74219 2 1
92 1 18.5475 -3.19319 -0.936818 2 1
93 1 18.3183 -4.68409 6.51188 2 1
94 1 -4.07017 -15.8639 -5.02228 2 1
95 1 11.0953 13.9649 -10.1261 2 1
96 2 3.08811 -8.92393 4.44492 1 1
97 2 0.650227 -6.91596 5.52244 1 1
98 1 6.10524 -15.5591 -0.969256 2 1
99 1 -7.2197 -12.2968 3.15057 0 0.991307
100 2 -13.4545 14.918 -4.75963 2 1
101 1 10.5502 -9.6025 -16.1469 2 1
102 1 6.80491 7.86665 19.273 2 1
103 1 2.07231 1.85542 -15.4285 2 1
104 1 21.1912 3.65032 5.30538 2 1
105 2 -0.946129 6.6273 -11.3133 1 1
106 1 8.75052 -15.3852 8.62447 2 1
107 2 4.02266 -15.6721 7.05788 2 1
108 2 2.7433 -0.0410345 -8.6204 0 0.961287
109 2 6.69966 -11.4559 0.86224 1 1
110 2 0.617211 -18.8674 -1.12699 2 1
111 2 1.95454 -10.292 -16.571 2 1
112 1 -7.88101 -10.2267 1.12404 0 0.982909
113 1 -10.4387 13.7786 -7.15364 2 1
114 2 -14.9327 8.89896 -7.3259 2 1
115 2 20.8411 2.32186 -5.8384 2 1
116 1 -7.93156 -0.467056 -9.56644 1 1
117 1 1.64294 14.5445 -14.3871 2 1
118 1 0.469408 7.21299 -10.5783 1 1
119 1 9.44946 -10.1157 10.7856 1 1
120 1 2.17703 4.53959 22.4052 2 1
121 1 6.26697 -18.7459 5.9318 2 1
122 1 -15.6343 -10.2366 2.94585 2 1
123 1 -16.4164 -5.0828 10.3607 2 1
124 2 -9.4344 -7.30411 5.87882 1 1
125 2 16.71 10.3378 -8.16229 2 1
126 2 -8.75849 16.8931 -6.60293 2 1
127 2 4.70369 -1.92884 -15.6126 2 1
128 2 -11.621 12.3947 -5.90093 2 1
129 2 21.3254 3.43273 3.39128 2 1
130 1 -11.5415 -9.07631 14.0327 2 1
131 1 -15.0649 15.8266 6.05105 2 1
132 1 16.7226 -2.30035 5.33267 2 1
133 1 5.96979 -15.9777 -16.8671 2 1
134 2 2.13998 -4.55494 -7.57407 0 0.969184
135 2 8.70181 -3.87416 10.6442 1 1
136 1 -1.70935 -6.72799 -8.80218 1 1
137 1 10.5664 -8.5129 7.53563 1 0.999999
138 1 2.16297 -7.97186 5.8325 1 1
139 1 -21.4207 -1.49966 -2.40158 2 1
140 1 1.40258 -7.8417 -4.70146 0 0.927
141 2 -11.258 8.40337 -3.18271 0 0.993191
142 2 -9.23874 -14.3919 -1.61575 2 1
143 2 -15.0172 2.73669 16.5689 2 1
144 2 -0.647462 17.2819 -11.7412 2 1
145 1 15.3016 16.8701 -4.62798 2 1
146 1 19.4281 -9.35902 -9.50932 2 1
147 1 -9.20447 -16.9099 8.20457 2 1
148 1 14.3699 11.9119 -1.78935 2 1
149 1 -18.8885 7.58994 -12.9526 2 1
150 1 -1.43329 12.3743 2.67762 1 0.80883
151 1 11.1231 -18.3424 4.26674 2 1
152 1 -6.35916 0.146917 3.61292 0 0.977779
153 1 7.5686 -14.6553 15.53 2 1
154 2 -1.54951 -1.61851 -19.1453 2 1
155 2 -12.1995 -16.0427 10.1519 2 1
156 2 6.18367 -10.4964 -17.4691 2 1
157 2 -0.43947 -11.4044 8.20594 1 1
158 2 -11.7644 -6.16038 -11.1363 2 1
159 1 14.4752 3.86205 -13.6589 2 1
160 1 12.2416 -11.1272 16.9076 2 1
161 1 10.7248 -3.44196 16.4591 2 1
162 1 9.00266 -14.6112 -0.2906 2 1
163 2 -6.49992 -1.81389 -18.0466 2 1
164 2 -9.05951 6.24884 12.7448 2 1
165 1 8.91448 -17.5912 6.21609 2 1
166 1 1.08096 -14.5634 -2.81769 2 0.990605
167 1 -2.21407 17.5101 -12.1143 2 1
168 1 -2.13608 -8.47356 -13.9852 2 1
169 1 -11.8757 -17.7538 -7.15208 2 1
170 1 -4.62546 8.63649 7.4568 2 0.540028
171 1 -19.6428 1.12428 -2.37385 2 1
172 2 2.03773 -5.88903 -13.4844 2 0.999959
173 2 -13.1741 -8.77708 13.2064 2 1
174 2 -18.4039 1.82671 -3.51212 2 1
175 2 -8.08586 8.36632 5.37632 0 0.9729
176 1 -19.9464 8.11362 -0.818207 2 1
177 1 -3.2828 -9.3133 4.22929 1 1
178 1 6.29634 -6.78729 -2.14441 1 1
179 1 10.4145 -8.37097 -8.20762 2 0.98941
180 1 5.43594 7.90174 -20.4529 2 1
181 1 -12.7754 18.9569 -6.12714 2 1
182 2 -7.29231 3.69987 8.4697 0 0.713799
183 2 -0.801832 -0.334108 -5.29005 0 0.996818
184 2 -4.62409 -2.2738 0.752152 0 0.996681
185 2 1.7642 -16.5711 0.392956 2 1
186 1 -1.41642 -0.536598 -7.11272 0 0.929098
187 2 -13.1297 -5.02297 9.4044 2 1
188 1 -11.425 -4.17303 0.370729 0 0.949479
189 1 -12.6809 -5.10074 -10.0759 2 1
190 1 -14.8936 10.3167 -12.2228 2 1
191 1 8.72044 9.12326 1.43246 0 0.990194
192 1 -2.90643 9.136 -11.9819 2 1
193 1 -19.989 8.76584 9.30342 2 1
194 1 -3.23955 -5.39013 10.6486 1 1
195 2 2.41858 -11.5311 2.99391 1 1
196 2 -11.5249 -0.937121 0.543124 0 0.948275
197 2 -11.9339 -1.36087 16.956 2 1
198 1 -6.1013 -5.03351 -9.66784 1 1
199 1 6.34822 -18.6019 2.18112 2 1
200 1 1.30729 -14.542 9.40926 2 1
201 1 14.2353 -8.10697 5.46928 2 1
202 1 -4.26172 9.46272 2.32045 0 0.934063
203 2 0.237093 14.2788 -10.1071 2 1
204 2 -14.3437 2.24071 -0.476969 0 0.98558
205 2 -16.9745 -11.4169 2.99015 2 1
206 2 -0.385973 18.8463 -2.03763 2 1
207 1 -10.6313 -11.3746 3.55358 2 1
208 1 -10.9994 6.05622 0.172941 0 0.99811
209 2 -5.87291 -0.617864 -12.2251 1 1
210 2 -16.8422 -12.8506 10.2591 2 1
211 1 -3.80559 13.1007 -11.8354 2 1
212 1 -3.43596 2.24274 21.7267 2 1
213 1 18.0976 2.10732 -9.86414 2 1
214 1 -15.4989 10.2782 -6.07592 2 1
215 2 5.05008 -10.7789 -12.1308 2 1
216 2 -15.1729 -3.44453 -3.08597 2 0.79055
217 1 -6.91064 -16.4162 7.23476 2 1
218 1 15.3309 11.2144 -8.25521 2 1
219 1 -9.30516 -10.2835 -3.50213 2 0.999971
220 1 -1.52761 -13.1975 -12.6346 2 1
221 1 5.67204 -9.03708 -18.0898 2 1
222 1 11.6824 -0.558113 8.45403 0 0.790025
223 1 6.41184 -15.4972 -8.57716 2 1
224 1 -20.5294 1.8233 0.432316 2 1
225 1 16.043 7.86544 -11.385 2 1
226 2 -5.08338 7.29505 -5.29912 0 0.99556
227 2 -14.0899 -0.677503 0.989917 0 0.879182
228 2 -10.3411 -6.95304 3.31648 0 0.9941
229 2 -2.38197 -7.50003 -10.3495 1 1
230 2 -4.55468 -5.47611 4.86 1 1
231 2 -13.0659 4.98092 14.9877 2 1
232 1 -13.8124 -2.82321 -9.43867 2 1
233 1 -11.5505 0.162881 -2.56326 0 0.964747
234 1 -10.5935 1.96355 -9.75496 1 1
235 1 3.18229 1.30875 -12.735 1 1
236 2 -18.5729 8.33142 10.0389 2 1
237 2 -9.40931 15.492 -0.140019 2 1
238 1 1.65767 3.59292 -13.0556 1 1
239 1 5.64109 7.95873 -3.0548 0 0.993165
240 1 -9.64569 6.74151 7.51253 1 0.563808
241 2 -5.58955 -12.0942 2.148 0 0.981896
242 2 -8.40045 8.03594 -16.6359 2 1
243 1 11.3249 1.83505 8.11403 1 0.94653
244 1 -8.79406 0.0717757 -2.26019 0 0.99794
245 1 3.90674 -19.6473 -10.6553 2 1
246 2 -9.00257 -0.509121 17.7831 2 1
247 2 9.20731 -3.5334 2.27668 1 1
248 2 9.61258 2.61745 -2.5488 0 0.997826
249 1 -10.5057 -8.51782 5.2381 1 0.999999
250 1 6.81485 -4.35387 -13.8862 2 1
251 1 0.311116 -14.3284 13.3985 2 1
252 1 18.6059 -5.73295 4.17828 2 1
253 1 3.71385 -15.796 12.8774 2 1
254 1 -15.3909 7.77401 1.07734 0 0.972112
255 2 10.2316 -4.11916 -14.8584 2 1
256 2 9.07391 -6.36234 -10.2797 0 0.957648
257 2 -2.89226 -0.944297 -1.27535 0 0.997017
258 2 1.13233 2.28443 -3.31228 0 0.986728
259 2 8.43271 11.6232 11.7359 2 1
260 2 -5.49927 -4.98436 7.88225 1 1
261 1 -1.32997 9.94326 4.07011 0 0.944666
262 1 17.7753 -4.93255 -10.1538 2 1
263 1 7.84529 -3.35362 -6.35781 0 0.995809
264 1 7.62194 -5.8005 -11.25 2 0.998465
265 1 1.61992 -0.586628 6.80825 1 1
266 2 14.0974 10.1319 1.00247 2 1
267 2 -8.30858 -12.8034 -9.25981 2 1
268 1 -1.1768 -1.94915 -9.80344 1 1
269 2 16.0308 -6.94877 -5.16855 2 1
270 2 19.4797 4.43921 5.25223 2 1
271 1 -1.65498 -14.8356 8.43874 2 1
272 2 14.7685 -1.5933 4.45256 0 0.955877
273 1 -2.65645 8.65447 -14.3119 2 1
274 1 1.94965 -18.4103 -8.38214 2 1
275 1 -6.93216 -10.8931 -1.55318 1 0.999994
276 1 9.20917 -1.0436 -16.0386 2 1
277 1 -7.30496 13.0779 -2.19738 2 0.83407
278 1 8.9666 -8.34645 -9.89185 2 1
279 1 -4.8819 -15.5998 -9.05594 2 1
280 1 -10.5054 -9.78932 11.1283 2 1
281 1 12.2791 13.139 0.186464 2 1
282 2 16.3218 -1.41144 -4.29844 2 1
283 2 -0.162332 4.07623 -18.8301 2 1
284 2 18.1136 -7.6549 -7.13838 2 1
285 2 9.84976 -10.5462 2.3175 1 1
286 1 -4.88897 3.42951 2.90083 0 0.99585
287 1 -11.7554 -16.6248 3.67016 2 1
288 1 -15.0609 -5.3149 -3.21435 2 1
289 1 21.6946 5.05094 2.8567 2 1
290 1 15.4436 5.03924 9.07385 2 1
291 2 -8.22677 -4.38315 -6.68457 1 1
292 2 20.8953 -7.00147 6.61944 2 1
293 2 12.6189 -10.1697 2.65648 2 1
294 1 11.0526 -14.3681 13.1487 2 1
295 1 -5.96616 -7.86098 -5.6128 1 1
296 1 9.54942 -6.27819 6.28932 1 1
297 1 2.04882 4.08331 6.83936 1 1
298 1 0.853098 11.9737 -12.8952 2 1
299 1 -3.64042 -17.9507 0.11027 2 1
300 1 -1.61199 -16.3122 -0.292908 2 1
301 1 -5.10523 -0.644107 1.66778 0 0.994541
302 2 10.9653 -4.86303 -11.9341 2 1
303 1 1.83472 3.3198 -17.4461 2 1
304 1 -12.2366 -1.51823 9.68941 2 1
305 1 -11.0261 0.558273 -15.2 2 1
306 1 -3.99166 9.7013 -9.30344 1 0.864919
307 1 -8.22721 19.7141 -3.75246 2 1
308 1 -5.83398 -8.72715 10.6938 2 1
309 2 -11.019 -10.3465 -4.00981 2 1
310 2 -13.5116 4.32496 2.28258 0 0.985521
311 2 -12.6055 -8.01904 5.0774 2 0.870721
312 2 -1.67904 4.88058 -16.5533 2 1
313 2 10.8791 -2.4416 6.23239 0 0.883268
314 1 -0.0900655 -16.6673 -8.98927 2 1
315 1 2.42496 5.34096 12.0397 1 1
316 2 -10.8685 -16.7878 7.85592 2 1
317 2 14.2862 -4.00647 -8.22615 2 0.992238
318 1 0.284736 2.73438 3.43988 1 0.995864
319 1 9.90769 -7.80307 -14.5833 2 1
320 1 2.25576 7.73049 0.672667 0 0.922153
321 1 -13.6123 -9.67885 -8.96411 2 1
322 2 7.83011 -1.31123 -14.9826 2 1
323 2 -0.224397 -10.7269 -7.07135 0 0.957478
324 1 -0.853408 13.7632 -1.21958 0 0.98365
325 1 -17.2609 2.71936 -4.54463 2 1
326 1 8.60367 -2.07599 11.548 1 1
327 1 -4.51455 -2.96622 -6.63036 0 0.925567
328 1 3.49421 -5.81526 15.9898 2 1
329 1 12.1863 -5.42184 -13.1884 2 1
330 2 -14.6137 -5.59384 1.0882 0 0.911283
331 2 12.5701 -11.3645 -3.54872 2 1
332 2 7.35538 -5.10952 -1.91934 2 0.990133
333 2 10.7822 1.37674 2.07379 0 0.792346
334 2 -2.76934 0.204854 -11.8147 1 1
335 1 -6.91853 6.91083 -8.99674 1 0.999998
336 1 -8.95404 13.6846 11.4944 2 1
337 1 -4.4052 3.90834 -20.1368 2 1
338 1 -3.14841 -19.064 10.1611 2 1
339 2 3.7717 -11.5222 -18.9144 2 1
340 2 -7.4307 -9.47237 -0.723562 0 0.927227
341 2 12.1803 9.33616 -0.624666 0 0.857385
342 2 -14.031 -9.2967 -5.35202 2 1
343 1 -2.68917 14.3407 3.21591 2 0.936252
344 1 -0.833092 -8.58438 4.81921 1 1
345 1 -9.16024 -2.18501 -1.30435 0 0.99228
346 1 3.92666 -0.730297 5.26138 1 1
347 1 -4.1864 -17.5951 8.88019 2 1
348 1 -2.66141 6.47338 -11.2163 1 1
349 1 -6.36477 -11.1296 -11.8006 2 1
350 2 -9.27312 5.31951 -17.3059 2 1
351 2 -14.7042 -1.57969 13.1557 2 1
352 2 1.56908 -17.0197 -9.46854 2 1
353 2 -9.37909 -19.7379 3.33388 2 1
354 2 14.325 -15.143 6.52228 2 1
355 2 11.7945 9.52577 -11.0009 2 1
356 1 5.18797 -12.2214 7.01667 1 1
357 1 -7.37709 1.06639 -21.8675 2 1
358 1 4.65116 -8.5956 -0.297707 1 1
359 1 15.2835 2.32313 -9.10372 2 1
360 1 15.4472 -7.53335 14.2339 2 1
361 1 12.4655 -4.8189 -7.68004 0 0.9991
362 1 1.52301 16.6197 10.9867 2 1
363 2 2.61702 -12.0341 -13.4388 2 1
364 2 -18.8706 -2.42677 -6.9775 2 1
365 2 -4.52789 -16.8273 -3.41341 2 1
366 2 -12.833 8.96679 -0.658456 0 0.991071
367 2 -1.53601 -6.78569 -14.3182 2 1
368 1 4.9845 -17.093 0.503429 2 1
369 1 6.14159 -11.996 -12.8518 2 1
370 2 4.32994 -15.1863 -0.153402 2 1
371 1 13.7995 1.03192 10.1895 2 1
372 1 -11.8077 -8.04629 8.82172 2 1
373 1 -1.87127 3.17735 -1.20294 0 0.998482
374 1 -8.06605 -5.77011 -16.0382 2 1
375 1 -3.40221 -3.90266 -21.4514 2 1
376 1 9.49649 15.1452 -9.18356 2 1
377 1 0.41012 4.13998 -2.29093 0 0.990261
378 1 -7.79051 7.17179 -11.845 1 0.999997
379 1 -0.533796 -5.10317 12.5699 1 1
380 1 -7.69364 -9.86745 -7.14852 1 1
381 2 -3.04049 -9.79609 8.4014 1 1
382 2 -6.37697 -7.80288 12.2668 2 1
383 2 2.09859 -8.76313 -19.4531 2 1
384 2 -13.6841 -10.4347 6.5924 2 1
385 2 -3.79988 -11.4335 -14.5144 2 1
386 2 -4.01731 -15.6843 5.97974 2 1
387 2 -5.2198 2.82302 0.776876 0 0.991396
388 1 -7.53281 -3.08205 -17.4233 2 1
389 1 19.9417 0.645299 -3.07802 2 1
390 1 -5.07293 -13.9596 2.63629 0 0.99314
391 1 7.03508 4.7978 0.808676 0 0.996421
392 1 10.9098 11.0636 -10.6576 2 1
393 2 -8.75015 -1.0283 20.2525 2 1
394 2 -14.796 -14.2685 10.4172 2 1
395 1 -16.7919 5.7833 -13.5605 2 1
396 1 8.99833 10.1653 4.27468 2 0.994184
397 1 -3.49158 6.37568 -21.0641 2 1
398 1 0.0659865 7.18468 12.802 2 1
399 1 9.49643 -1.1645 18.0891 2 1
400 1 -12.5327 7.78968 -1.88954 0 0.977494
401 1 -5.25033 -3.73986 9.30808 1 1
402 2 1.52256 -4.02745 -11.1554 1 0.774023
403 2 -9.6284 -9.74521 -7.93804 2 1
404 1 -5.31317 15.7026 -5.00858 2 1
405 1 -17.4186 -8.72071 4.942 2 1
406 1 0.38349 -12.949 6.82987 1 1
407 1 1.04019 -2.26009 -10.674 1 1
408 1 -14.0197 8.62526 9.09092 2 1
409 1 14.4038 2.78458 14.2524 2 1
410 2 7.01395 -12.8202 -11.5504 2 1
411 2 4.11297 -8.88274 -10.1091 0 0.993976
412 2 -17.326 -5.67173 -3.37091 2 1
413 2 -12.0389 5.63717 -4.79319 0 0.99871
414 2 -9.35753 -3.61319 18.2344 2 1
415 2 -9.82522 1.03716 15.7943 2 1
416 1 -6.85097 8.26924 -17.2079 2 1
417 1 3.55446 -17.4675 3.11106 2 1
418 2 -2.02064 -13.6245 9.9269 2 1
419 2 -4.42237 -14.2394 -4.32078 2 0.99815
420 1 -2.55261 -3.27201 10.164 1 1
421 1 -11.9232 -12.1089 -9.30257 2 1
422 1 -9.8952 15.7112 -5.46315 2 1
423 1 18.5808 -9.33652 3.98121 2 1
424 1 1.43358 -6.45771 17.529 2 1
425 2 -1.85705 -0.368661 -8.88794 1 0.999954
426 2 -8.86794 -11.3874 6.63418 1 1
427 2 -17.4627 -14.2788 -2.55097 2 1
428 1 16.9733 -3.32738 16.4994 2 1
429 1 -10.2303 7.1616 -1.85315 0 0.998192
430 1 -3.012 10.0222 -1.15883 0 0.985634
431 1 -3.59918 -10.8474 -12.8365 2 1
432 2 -6.69548 1.74973 16.4908 2 1
433 2 -14.5351 -1.19351 -9.53899 2 1
434 2 10.8722 -16.1964 2.5939 2 1
435 2 -9.01839 -0.273674 -5.95655 1 0.6035
436 1 7.91048 -13.7714 -10.0649 2 1
437 1 5.25719 -6.68646 -7.29141 0 0.921035
438 2 -7.17743 -0.690905 11.1782 1 1
439 2 -17.2954 7.05351 12.0092 2 1
440 1 12.9578 -11.6271 -9.39256 2 1
441 1 11.3948 -13.7549 -7.86214 2 1
442 2 5.83475 -16.0096 -2.51193 2 1
443 1 -11.4724 -5.25052 -15.1672 2 1
444 1 4.51355 -16.6816 5.43101 2 1
445 1 8.98292 3.77733 19.0166 2 1
446 1 -2.89354 -6.34387 -11.4256 1 1
447 1 -4.36653 10.4226 9.42188 2 1
448 1 9.05179 3.78207 -1.05505 0 0.997002
449 1 13.0681 5.27926 8.40546 2 1
450 1 10.6522 -16.8923 1.10802 2 1
451 1 9.52406 -7.1529 12.8862 1 1
452 2 8.53033 -9.50182 -0.289319 1 1
453 2 -10.2453 -9.81577 3.8281 0 0.878219
454 2 -2.37979 -1.61838 -14.0668 1 1
455 2 -12.0304 -9.34393 10.1863 2 1
456 2 1.1157 -9.60072 -13.7046 2 1
457 2 -5.20871 -2.41439 -2.91917 0 0.973872
458 1 0.740293 -9.75479 -10.0258 0 0.965793
459 1 -11.8789 -0.900647 -8.12645 1 1
460 1 17.7064 -2.46331 -6.19194 2 1
461 2 7.21315 -15.0197 7.87432 2 1
462 2 0.563335 -3.66164 -19.0826 2 1
463 1 7.32566 2.08524 15.9471 2 1
464 1 2.34064 16.4064 -4.35604 2 1
465 2 -9.70046 -10.6674 9.84411 2 1
466 2 1.96149 -14.1506 1.90207 2 0.556658
467 1 20.4206 -10.8132 -7.099 2 1
468 1 -2.96182 -0.0968563 -10.0734 1 1
469 1 6.65383 -11.7519 16.3255 2 1
470 1 -8.16297 -6.15021 -6.62854 1 1
471 1 -5.80848 -15.681 -12.6364 2 1
472 1 -2.90519 11.5555 1.40406 0 0.982787
473 1 -18.6289 11.3393 4.69799 2 1
474 2 -5.16925 -2.50204 -14.9612 2 1
475 2 -7.3622 -19.7523 9.72905 2 1
476 2 -22.3237 8.36192 -5.98604 2 1
477 2 16.3451 -8.84473 11.6045 2 1
478 2 -6.45681 -10.909 -7.85958 1 1
479 2 -10.5094 -7.87448 14.8583 2 1
480 1 12.9026 -15.4498 5.58886 2 1
481 1 2.43735 16.792 -9.80758 2 1
482 1 -4.0938 -9.74142 -15.2727 2 1
483 1 -10.1475 -0.463279 -10.2607 1 1
484 2 -11.4932 -13.5127 -8.43496 2 1
485 2 3.51768 -8.31644 -12.6084 0 0.949632
486 1 -6.72247 -13.7757 -12.9965 2 1
487 1 -10.9915 -15.0902 11.2221 2 1
488 1 9.52417 4.03341 -19.2041 2 1
489 2 3.5941 -13.2563 5.43023 1 1
490 2 9.09828 -12.4151 6.71234 1 0.999992
491 1 -18.0185 11.1331 1.81835 2 1
492 1 2.99249 -3.40011 -6.60897 0 0.976586
493 1 -18.8145 -5.63597 -9.34348 2 1
494 1 10.1114 -15.3706 6.37907 2 1
495 1 -0.644651 -13.8995 -7.81619 2 1
496 2 1.06565 11.8383 -5.51811 0 0.992274
497 2 5.25423 -10.1412 -1.2651 1 1
498 2 4.8976 -16.3297 -9.31953 2 1
499 2 -8.66868 -6.27688 -4.69941 2 0.508751
500 1 -6.7944 -20.1197 -3.20782 2 1
501 1 -17.3106 -3.96741 -3.80557 2 1
502 1 -9.60282 -8.55986 2.52594 0 0.988637
503 1 -13.344 8.13168 5.64019 2 1
504 1 16.9468 7.1444 -5.38124 2 1
505 1 -9.53113 -19.1094 -5.85354 2 1
506 1 -6.68287 4.7755 11.5238 2 1
507 1 -11.6041 -8.77346 3.20155 0 0.923075
508 2 -10.2171 -6.65254 -8.07253 2 1
509 2 6.52439 -17.0152 12.2781 2 1
510 2 -6.15199 -0.536571 8.35494 1 0.604284
511 2 -8.37029 5.40209 -14.8747 2 1
512 2 -16.0079 2.59256 -12.4772 2 1
513 2 -15.8084 -0.363955 -1.92765 1 0.999855
514 1 5.44402 -0.728532 -16.7959 2 1
515 1 -10.073 -1.92527 1.67828 0 0.995239
516 1 2.36701 -2.63688 9.81769 1 1
517 2 -11.5318 -13.2781 11.4042 2 1
518 2 -0.268803 -18.6516 8.70237 2 1
519 1 -7.95235 -6.8206 -10.9004 2 1
520 1 -3.28602 9.71303 5.43223 0 0.988461
521 1 -0.742765 2.13017 22.427 2 1
522 1 -17.6037 7.8691 -15.5624 2 1
523 1 -6.41442 -4.1406 -5.33253 0 0.781412
524 1 13.5418 9.16116 14.9173 2 1
525 1 -13.8845 -11.6588 7.79245 2 1
526 1 11.486 -7.62716 -1.15638 1 1
527 1 -14.2193 10.0346 -8.85072 2 1
528 1 10.5344 -10.7558 -4.26462 2 1
529 1 0.425748 -9.38014 13.3843 2 1
530 1 0.0252868 -1.93531 -17.6012 2 1
531 1 -8.66365 1.94131 7.60463 1 0.999816
532 2 -9.31116 1.53422 -3.5092 0 0.997634
533 2 2.07262 17.5843 9.47567 2 1
534 2 7.45399 8.27698 17.9466 2 1
535 2 2.1197 -14.1571 -4.00185 0 0.583428
536 1 -1.27542 -13.1131 -3.83657 0 0.996654
537 1 -15.3264 -9.917 -2.0004 2 1
538 2 -5.58243 -12.5642 -10.5752 2 1
539 2 -0.430374 -0.29713 17.3843 2 1
540 1 -11.7164 -17.3314 -2.21601 2 1
541 1 1.47822 12.1241 -1.32862 0 0.986061
542 1 -3.88378 -16.1408 -1.93966 2 1
543 1 4.26166 -15.1119 3.54943 2 1
544 2 5.76638 11.3513 -15.694 2 1
545 1 4.14879 -2.78682 17.1811 2 1
546 2 3.17064 -11.7321 -5.04799 0 0.577464
547 2 20.6984 4.85031 -3.8085 2 1
548 1 14.2976 -12.8122 4.28091 2 1
549 1 -15.0444 8.12715 -10.5705 2 1
550 1 -23.9791 -0.196704 2.55961 2 1
551 1 -10.3019 -18.1726 6.68366 2 1
552 2 -0.771999 -15.3689 12.3646 2 1
553 2 -7.09877 -13.2571 -5.90823 2 1
554 1 18.3944 0.727877 -13.7901 2 1
555 1 1.16607 -9.17029 16.1379 2 1
556 1 1.78638 -4.88945 -0.102385 1 1
557 1 -9.20876 1.19001 -19.4223 2 1
558 2 21.2356 -6.01723 -1.26564 2 1
559 1 8.47195 -3.89035 -1.52554 1 1
560 1 1.24105 0.84752 13.6757 1 1
561 1 17.8871 -0.867099 -2.13195 2 1
562 1 -1.33687 0.45197 4.70554 1 0.998202
563 2 12.4971 -0.769036 -17.7367 2 1
564 2 7.28726 -9.97011 8.0619 1 1
565 2 9.92686 -14.6109 -8.29694 2 1
566 2 -4.6029 0.656057 -14.5756 1 1
567 2 11.6482 3.71612 -8.21726 0 0.851158
568 1 -2.63667 14.779 -4.68997 2 1
569 1 -10.0759 5.32279 -15.6471 2 1
570 1 9.95919 -16.3921 -1.79362 2 1
571 1 -8.75718 -0.337421 6.35106 0 0.975538
572 1 20.8864 5.61267 -7.71932 2 1
573 1 -2.54468 -15.7281 -10.3474 2 1
574 2 -6.68428 10.5452 1.31582 0 0.978933
575 2 5.47348 8.93822 6.02549 0 0.967264
576 2 -1.35853 -14.4904 0.234715 0 0.652882
577 2 17.1881 0.738239 8.76639 2 1
578 1 -4.43641 -20.041 -1.35732 2 1
579 1 9.98158 -3.9837 -6.55323 0 0.996062
580 1 3.42844 -19.9719 2.0566 2 1
581 2 0.305164 -2.54493 -8.95974 0 0.922614
582 2 5.74122 6.62243 -19.2289 2 1
583 1 8.9256 -4.86491 -15.7559 2 1
584 1 -14.6797 15.0602 -3.34802 2 1
585 1 -22.1843 8.76814 -7.79222 2 1
586 1 -9.27889 0.594405 -12.3139 1 1
587 1 15.8169 10.4853 0.502879 2 1
588 1 9.42453 -1.53808 -11.0265 0 0.885902
589 2 -7.64682 -7.33398 -15.156 2 1
590 2 18.4705 -0.275139 1.48189 2 1
591 2 0.20795 -13.4126 -16.6001 2 1
592 1 -2.68346 -1.51881 -12.3038 1 1
593 1 19.396 -7.3111 -3.43153 2 1
594 1 -21.178 3.98079 8.5256 2 1
595 1 7.74691 -4.6466 2.32003 1 1
596 1 19.2108 -10.2555 9.21602 2 1
597 1 8.61731 7.75473 3.90043 0 0.957209
598 1 10.1994 -9.96273 0.247955 1 1
599 2 14.978 -13.566 -3.62702 2 1
600 2 11.649 7.36112 -8.68564 2 1
601 2 6.97799 1.09083 -18.5408 2 1
602 2 18.9755 7.5067 1.37397 2 1
603 1 -1.94653 -7.66069 13.8238 2 1
604 1 14.3951 14.7254 -0.586193 2 1
605 1 -11.8394 10.693 -15.9809 2 1
606 1 13.3788 -9.6341 -8.23134 2 1
607 1 21.0242 -8.4517 7.49434 2 1
608 1 13.6657 1.34541 -11.9393 2 1
609 1 -1.0335 -12.0448 0.762477 0 0.991284
610 1 -8.81209 -9.32029 -9.48037 2 1
611 1 9.96832 12.3312 0.892898 2 1
612 2 13.6762 14.2221 1.1083 2 1
613 1 1.31476 -5.02683 8.19017 1 1
614 2 6.04126 -11.0055 -8.71643 2 0.530089
615 1 -5.60848 2.38583 -10.4557 1 1
616 2 14.408 -0.690759 -1.91919 0 0.995632
617 1 7.92601 -8.35287 -7.43996 0 0.995617
618 1 -0.559107 6.72788 -21.1027 2 1
619 1 -2.50034 12.1128 -7.61493 0 0.998809
620 2 -5.23403 -4.78708 -0.772909 0 0.984361
621 2 -0.147461 -11.8256 -4.20862 0 0.964803
622 1 5.25581 -17.927 11.4261 2 1
623 1 10.3306 -4.55744 11.2188 1 1
624 2 5.87572 -8.3004 5.28128 1 1
625 2 -5.87346 -16.1178 -5.70378 2 1
626 2 -15.5585 -5.64428 -12.4908 2 1
627 2 -7.1467 13.4826 -8.17846 2 1
628 1 -4.29602 -11.8118 13.943 2 1
629 1 15.4975 -5.19441 14.6752 2 1
630 1 6.15352 -12.2394 -2.53962 1 0.999999
631 2 7.03085 12.3863 -9.28724 2 1
632 2 -0.274649 -8.09113 -17.3139 2 1
633 1 -20.0411 13.3672 5.63052 2 1
634 1 9.24159 -18.9741 -2.72637 2 1
635 1 -7.91097 3.94229 -5.91764 0 0.994933
636 1 -14.7044 5.40874 14.0451 2 1
637 1 -12.5176 -1.64998 -16.3792 2 1
638 1 3.93353 6.16221 -19.4759 2 1
639 1 -17.357 6.15027 -8.39482 2 1
640 1 3.889 1.03144 -5.56874 1 0.999997
641 2 13.8172 -7.7508 9.30836 2 1
642 2 15.1146 -8.36566 -8.12908 2 1
643 2 1.22443 19.9157 3.23528 2 1
644 2 15.6329 -1.21152 -9.47872 2 1
645 2 10.5867 6.587 17.2076 2 1
646 1 8.20958 -8.80569 9.13125 1 1
647 1 -15.3727 -11.683 10.6484 2 1
648 1 2.80454 1.85294 8.01464 1 1
649 1 -15.5489 -2.81621 -7.15537 2 1
650 2 7.256 -17.5972 6.9098 2 1
651 2 8.91305 -9.52428 -15.8174 2 1
652 1 -6.24868 -11.2496 9.45303 2 1
653 1 -15.7197 7.14939 11.4504 2 1
654 1 17.1057 12.9234 -5.41861 2 1
655 1 4.61756 -1.91085 -18.8967 2 1
656 1 16.0971 -11.4339 8.64204 2 1
657 2 11.8635 7.42649 -13.0173 2 1
658 2 -14.348 5.01286 -2.22713 0 0.993692
659 2 12.8061 5.3523 -11.4167 2 1
660 2 -11.8041 -1.63975 -9.97058 1 0.920862
661 1 -12.2124 -15.0439 -8.57214 2 1
662 1 3.60972 8.11631 -10.4507 0 0.5717
663 1 5.81147 -6.67715 -18.0005 2 1
664 1 -11.7539 -5.94617 -7.70546 2 1
665 1 -11.9955 -1.82516 -0.894051 0 0.993049
666 1 19.9258 0.47414 6.41518 2 1
667 1 -5.70897 -19.6518 4.47403 2 1
668 1 -15.5256 0.265614 -9.77181 2 1
669 2 -2.30138 -3.46913 -9.30408 1 1
670 2 -13.3524 -3.71005 -11.4786 2 1
671 2 6.43373 16.7044 -2.74311 2 1
672 2 3.39522 -12.6279 11.8015 2 1
673 2 -13.0502 0.0525531 -7.19113 0 0.914312
674 2 -15.7684 -8.57058 -3.39398 2 1
675 1 0.67094 6.80423 -1.5036 1 0.84542
676 1 13.7075 -7.13372 -1.70022 0 0.635378
677 1 14.7218 -1.30719 6.23091 2 0.987674
678 2 -16.2701 9.04221 -11.5199 2 1
679 2 -7.47069 -16.7099 1.7842 2 1
680 1 15.4352 0.719151 -1.44795 0 0.686231
681 1 -1.93108 5.08498 -14.6959 2 1
682 1 3.63538 1.2385 -17.4948 2 1
683 1 15.9528 1.98073 -4.74597 2 1
684 1 9.26853 14.6991 6.72486 2 1
685 1 -0.895851 7.69764 -3.90696 1 0.998666
686 2 -5.47558 -7.66953 9.14636 1 1
687 2 3.81026 8.09317 -20.0333 2 1
688 2 -1.14541 -8.95236 -4.75689 0 0.98266
689 2 -1.92381 -4.66026 -20.4348 2 1
690 1 2.6092 5.83134 -17.0494 2 1
691 1 -11.4119 14.8742 -0.665749 2 1
692 1 -7.91009 16.6631 8.66101 2 1
693 1 -0.596433 14.3264 1.71857 0 0.788918
694 1 -3.68082 -3.65026 -3.87699 0 0.997812
695 1 10.4334 6.19925 -12.4853 2 1
696 1 13.2765 -2.54532 -6.80101 0 0.997815
697 2 -9.17629 4.35498 -4.62524 0 0.987224
698 2 4.03662 -0.394882 -13.2675 1 1
699 2 5.60602 0.832325 -15.7583 2 1
700 2 -13.5548 -7.76415 7.90609 2 1
701 1 -12.5449 -6.4062 -2.90458 0 0.843097
702 1 10.1134 -1.41225 -3.4894 0 0.997346
703 1 4.94709 19.6789 -5.35332 2 1
704 2 -1.99322 -14.8404 -11.8315 2 1
705 1 -3.79811 -13.349 9.01683 2 1
706 1 5.36061 -15.0195 -14.0397 2 1
707 1 -0.622258 -1.95536 5.19663 1 1
708 1 6.31843 7.10228 -5.55024 0 0.864993
709 1 -9.20468 -5.26836 -8.65516 1 1
710 1 -7.26978 -1.74755 8.07899 0 0.498087
711 2 -0.814912 -10.7511 -15.4145 2 1
712 2 6.10886 12.0956 6.45871 0 0.553629
713 2 2.64757 7.36971 -4.46794 0 0.931896
714 2 0.22637 -5.50895 -16.4369 2 1
715 2 -12.6227 2.28952 -16.9511 2 1
716 2 -0.55446 7.44373 -17.5703 2 1
717 1 -12.6409 -2.07532 6.70024 0 0.979076
718 1 -7.6278 4.52574 6.8431 0 0.860588
719 1 11.6891 -12.5972 -2.32088 2 1
720 1 5.46058 -9.79883 8.30097 1 1
721 2 -3.77476 13.4069 -4.37225 0 0.565534
722 2 -12.1868 -14.7427 6.74643 2 1
723 2 -4.4511 15.1534 -9.12022 2 1
724 1 6.6752 -4.54593 5.2282 1 1
725 1 9.41641 3.46568 5.7583 1 1
726 1 3.86863 -11.1158 -1.75432 1 1
727 2 -15.3344 1.60757 -8.33461 2 1
728 1 4.87428 3.45423 11.003 1 1
729 1 13.8259 -4.6339 -15.8954 2 1
730 1 4.93416 18.9765 2.78592 2 1
731 2 -13.4981 3.47796 12.1668 2 1
732 1 5.11083 11.7626 0.518616 0 0.993984
733 1 3.34832 -3.51194 -11.503 0 0.761778
734 1 2.63209 10.0651 13.6492 2 1
735 1 -9.29233 -12.7174 5.18523 2 1
736 1 -17.43 9.58793 6.87042 2 1
737 1 -2.11069 12.7167 -3.32822 0 0.978814
738 1 15.5282 -2.5045 -5.33154 2 0.999998
739 1 -12.7027 -14.6625 -3.17425 2 1
740 2 0.287417 9.94313 -15.905 2 1
741 2 -8.99657 -15.0337 -7.23898 2 1
742 2 -4.51177 -16.344 2.69385 2 1
743 2 2.72499 -1.43213 -11.0291 1 1
744 1 13.0233 -8.23167 14.7278 2 1
745 2 -10.3488 -12.1547 -6.40606 2 1
746 1 18.2248 -5.34216 -2.55887 2 1
747 1 -8.07676 5.97689 -4.57586 0 0.997966
748 1 6.97057 16.0069 -8.31227 2 1
749 1 13.6759 -10.196 -4.21765 2 1
750 1 -3.29588 14.4526 6.16579 2 1
751 2 6.03104 -6.62241 -11.1048 0 0.995409
752 2 8.84181 -13.8073 11.9863 2 1
753 2 17.2632 10.5985 2.65693 2 1
754 2 -1.92132 12.1033 -14.7716 2 1
755 2 -0.562309 3.58386 12.9646 2 0.529555
756 1 -2.98378 4.70977 4.2766 0 0.762478
757 1 -10.3669 -5.87958 7.15366 1 1
758 2 9.0288 -9.51756 -8.26646 2 0.999991
759 2 -16.9384 -12.958 0.331702 2 1
760 2 -16.8751 -7.21382 -0.441565 2 1
761 1 2.45491 -14.3103 -10.9698 2 1
762 1 8.24872 -11.7045 7.97602 1 1
763 1 -10.9387 -12.3615 -4.20371 2 1
764 1 -0.401198 3.38703 16.435 2 1
765 1 9.57042 0.187444 -9.12827 0 0.994265
766 1 -7.27686 16.3669 0.313963 2 1
767 1 6.16969 2.50143 18.6174 2 1
768 1 0.531662 18.6218 -11.4164 2 1
769 1 -7.52273 -15.3398 -1.67663 2 1
770 1 -1.91159 21.2939 0.0419549 2 1
771 2 4.73312 -16.3514 2.35602 2 1
772 2 4.25216 -7.97225 -18.0151 2 1
773 2 2.37393 8.13608 -17.2343 2 1
774 2 6.27227 -4.50043 1.43901 1 1
775 1 -10.4749 0.211811 -0.424775 0 0.990194
776 1 5.10237 4.05733 -1.1608 0 0.998934
777 1 7.96114 -9.39417 14.8428 2 1
778 1 -7.22335 7.03509 8.66922 2 0.999987
779 1 2.46059 -2.66681 0.814706 1 1
780 2 16.9735 -6.50483 9.96907 2 1
781 2 18.0132 2.31237 -13.1091 2 1
782 1 -15.6772 12.2248 3.82963 2 1
783 1 -2.29895 1.80535 -19.7103 2 1
784 1 -15.1322 2.95121 -2.16712 1 0.94714
785 1 5.26396 17.3257 -4.23001 2 1
786 1 -5.0842 -2.85915 -19.1665 2 1
787 1 -8.67277 -3.76456 0.897262 0 0.983654
788 1 -2.94966 -1.39399 -19.9378 2 1
789 2 3.63505 -4.67858 -5.20296 0 0.956508
790 2 17.359 -3.44069 -9.12691 2 1
791 2 14.8074 2.54359 -1.35753 0 0.982072
792 1 10.5991 -9.16829 15.4944 2 1
793 1 -12.4603 -3.82561 3.05515 0 0.950528
794 1 -9.0713 -16.2232 5.37954 2 1
795 1 -1.46091 -10.9337 -11.4771 2 1
796 1 9.79155 -8.36264 18.1575 2 1
797 1 17.0657 4.38759 -11.2908 2 1
798 2 15.351 2.52843 -15.0297 2 1
799 2 6.60731 4.6968 7.97384 1 1
800 2 -6.39799 -13.6053 6.32237 1 0.99999
801 2 -11.3161 4.14169 -15.2262 2 1
802 2 17.6606 -1.49198 4.09144 2 1
803 2 -18.9264 -9.6787 -3.78565 2 1
804 1 10.6712 6.86362 9.11708 2 1