 # FCC Al
  
CRYSTAL Cubic 
  
           4  atoms
           1  atom types
 
      0.000000000000       4.038930000000  xlo xhi
      0.000000000000       4.038930000000  ylo yhi
      0.000000000000       4.038930000000  zlo zhi
 
Masses
 
            1   26.98153860             # Al 1
 
Atoms # atomic
 
         1    1        0.000000000000       0.000000000000       0.000000000000 1
         2    1        0.000000000000       2.019465000000       2.019465000000 1
         3    1        2.019465000000       0.000000000000       2.019465000000 1
         4    1        2.019465000000       2.019465000000       0.000000000000 1
