 # Bridgmanite - Mg O3 Si

CRYSTAL Orthorhombic  
  
          20  atoms
           3  atom types
 
      0.000000000000       4.778000000000  xlo xhi
      0.000000000000       4.929800000000  ylo yhi
      0.000000000000       6.899000000000  zlo zhi
 
Masses
 
	1	24.30500000	#	Mg	1
	2	28.08500000	#	Si	1
	3	15.99900000	#	O	2
 
Atoms # atomic
 
	1	1	2.454840840000	2.740377224000	1.72475000000	1	1
	2	2	2.389000000000	4.929800000000	3.44950000000	1	1
	3	3	0.486830420000	2.299505210000	1.72475000000	1	1
	4	3	0.937730280000	0.992516634000	3.81224942000	1	2
	5	2	2.389000000000	0.000000000000	6.89900000000	1	1
	6	3	0.937730280000	0.992516634000	6.53625058000	1	2
	7	1	2.323159160000	2.189422776000	5.17425000000	1	1
	8	3	4.291169580000	2.630294790000	5.17425000000	1	1
	9	3	3.840269720000	3.937283366000	0.36274942000	1	2
	10	3	3.840269720000	3.937283366000	3.08675058000	1	2
	11	1	0.065840840000	4.654322776000	5.17425000000	1	1
	12	2	4.778000000000	2.464900000000	0.00000000000	1	1
	13	3	2.875830420000	0.165394790000	5.17425000000	1	1
	14	3	3.326730280000	1.472383366000	0.36274942000	1	2
	15	2	4.778000000000	2.464900000000	3.44950000000	1	1
	16	3	3.326730280000	1.472383366000	3.08675058000	1	2
	17	1	4.712159160000	0.275477224000	1.72475000000	1	1
	18	3	1.902169580000	4.764405210000	1.72475000000	1	1
	19	3	1.451269720000	3.457416634000	3.81224942000	1	2
	20	3	1.451269720000	3.457416634000	6.53625058000	1	2

REFERENCE_BOND_ORIENTATIONAL_PARAMETERS
STEINHARDT_MODE OneL
NUMBER_OF_DIMENSION 6
CUTOFF_RADIUS 8.500000
1 1 0.68679
2 1 0.790402
3 1 0.374608
3 2 0.60516
