 # FCC copper crystal relaxed using EAM potential of Mishin-et-al-2001-PRB

CRYSTAL Cubic 
   
           4  atoms
           1  atom types
 
      0.000000000000       3.615000058215  xlo xhi
      0.000000000000       3.615000058215  ylo yhi
      0.000000000000       3.615000058215  zlo zhi
 
Masses
 
            1   63.54600000             # Cu 1
 
Atoms # atomic
 
1    1        1.807500029108       1.807500029108       0.000000000022 1
2    1        1.807500029108      -0.000000000021       1.807500029108 1
3    1       -0.000000000021       1.807500029108       1.807500029108 1
4    1       -0.000000000021      -0.000000000021       0.000000000022 1
