 # Enstatite - MgO3Si

CRYSTAL Orthorhombic  
  
          80  atoms
           3  atom types
 
      0.000000000000      18.056000000000  xlo xhi
      0.000000000000       8.692000000000  ylo yhi
      0.000000000000       5.119200000000  zlo zhi
 
Masses
 
	1	24.30500000	#	Mg	2
	2	28.08500000	#	Si	2
	3	15.99900000	#	O	6
 
Atoms # atomic
 
	1	1	6.810723200000	4.204320400000	1.79735112000	1	1
	2	1	6.789056000000	5.698475200000	4.39483320000	1	2
	3	2	4.897328880000	2.982225200000	0.22063752000	1	1
	4	2	8.537779600000	2.933550000000	4.10815800000	1	2
	5	3	3.291608800000	2.953541600000	0.13565880000	1	1
	6	3	5.600971200000	4.399890400000	0.17968392000	1	2
	7	3	5.483607200000	1.938316000000	4.22026848000	1	3
	8	3	10.149277600000	2.947457200000	4.12249176000	1	4
	9	3	7.811025600000	4.202582000000	3.50665200000	1	5
	10	3	8.065615200000	1.670602400000	3.13192656000	1	6
	11	1	6.810723200000	0.141679600000	4.35695112000	1	1
	12	1	6.789056000000	7.339524800000	1.83523320000	1	2
	13	2	4.897328880000	1.363774800000	2.78023752000	1	1
	14	2	8.537779600000	1.412450000000	1.54855800000	1	2
	15	3	3.291608800000	1.392458400000	2.69525880000	1	1
	16	3	5.600971200000	8.638109600000	2.73928392000	1	2
	17	3	5.483607200000	2.407684000000	1.66066848000	1	3
	18	3	10.149277600000	1.398542800000	1.56289176000	1	4
	19	3	7.811025600000	0.143418000000	0.94705200000	1	5
	20	3	8.065615200000	2.675397600000	0.57232656000	1	6
	21	1	11.245276800000	8.550320400000	0.76224888000	1	1
	22	1	11.266944000000	1.352475200000	3.28396680000	1	2
	23	2	13.158671120000	7.328225200000	2.33896248000	1	1
	24	2	9.518220400000	7.279550000000	3.57064200000	1	2
	25	3	14.764391200000	7.299541600000	2.42394120000	1	1
	26	3	12.455028800000	0.053890400000	2.37991608000	1	2
	27	3	12.572392800000	6.284316000000	3.45853152000	1	3
	28	3	7.906722400000	7.293457200000	3.55630824000	1	4
	29	3	10.244974400000	8.548582000000	4.17214800000	1	5
	30	3	9.990384800000	6.016602400000	4.54687344000	1	6
	31	1	11.245276800000	4.487679600000	3.32184888000	1	1
	32	1	11.266944000000	2.993524800000	0.72436680000	1	2
	33	2	13.158671120000	5.709774800000	4.89856248000	1	1
	34	2	9.518220400000	5.758450000000	1.01104200000	1	2
	35	3	14.764391200000	5.738458400000	4.98354120000	1	1
	36	3	12.455028800000	4.292109600000	4.93951608000	1	2
	37	3	12.572392800000	6.753684000000	0.89893152000	1	3
	38	3	7.906722400000	5.744542800000	0.99670824000	1	4
	39	3	10.244974400000	4.489418000000	1.61254800000	1	5
	40	3	9.990384800000	7.021397600000	1.98727344000	1	6
	41	1	2.217276800000	8.550320400000	1.79735112000	1	1
	42	1	2.238944000000	1.352475200000	4.39483320000	1	2
	43	2	4.130671120000	7.328225200000	0.22063752000	1	1
	44	2	0.490220400000	7.279550000000	4.10815800000	1	2
	45	3	5.736391200000	7.299541600000	0.13565880000	1	1
	46	3	3.427028800000	0.053890400000	0.17968392000	1	2
	47	3	3.544392800000	6.284316000000	4.22026848000	1	3
	48	3	16.934722400000	7.293457200000	4.12249176000	1	4
	49	3	1.216974400000	8.548582000000	3.50665200000	1	5
	50	3	0.962384800000	6.016602400000	3.13192656000	1	6
	51	1	2.217276800000	4.487679600000	4.35695112000	1	1
	52	1	2.238944000000	2.993524800000	1.83523320000	1	2
	53	2	4.130671120000	5.709774800000	2.78023752000	1	1
	54	2	0.490220400000	5.758450000000	1.54855800000	1	2
	55	3	5.736391200000	5.738458400000	2.69525880000	1	1
	56	3	3.427028800000	4.292109600000	2.73928392000	1	2
	57	3	3.544392800000	6.753684000000	1.66066848000	1	3
	58	3	16.934722400000	5.744542800000	1.56289176000	1	4
	59	3	1.216974400000	4.489418000000	0.94705200000	1	5
	60	3	0.962384800000	7.021397600000	0.57232656000	1	6
	61	1	15.838723200000	4.204320400000	0.76224888000	1	1
	62	1	15.817056000000	5.698475200000	3.28396680000	1	2
	63	2	13.925328880000	2.982225200000	2.33896248000	1	1
	64	2	17.565779600000	2.933550000000	3.57064200000	1	2
	65	3	12.319608800000	2.953541600000	2.42394120000	1	1
	66	3	14.628971200000	4.399890400000	2.37991608000	1	2
	67	3	14.511607200000	1.938316000000	3.45853152000	1	3
	68	3	1.121277600000	2.947457200000	3.55630824000	1	4
	69	3	16.839025600000	4.202582000000	4.17214800000	1	5
	70	3	17.093615200000	1.670602400000	4.54687344000	1	6
	71	1	15.838723200000	0.141679600000	3.32184888000	1	1
	72	1	15.817056000000	7.339524800000	0.72436680000	1	2
	73	2	13.925328880000	1.363774800000	4.89856248000	1	1
	74	2	17.565779600000	1.412450000000	1.01104200000	1	2
	75	3	12.319608800000	1.392458400000	4.98354120000	1	1
	76	3	14.628971200000	8.638109600000	4.93951608000	1	2
	77	3	14.511607200000	2.407684000000	0.89893152000	1	3
	78	3	1.121277600000	1.398542800000	0.99670824000	1	4
	79	3	16.839025600000	0.143418000000	1.61254800000	1	5
	80	3	17.093615200000	2.675397600000	1.98727344000	1	6

REFERENCE_BOND_ORIENTATIONAL_PARAMETERS
STEINHARDT_MODE OneL
NUMBER_OF_DIMENSION 8
CUTOFF_RADIUS 4.500000
1 1 0.346274
1 2 0.564279
2 1 0.292157
2 2 0.444787
3 1 0.499423
3 2 0.338009
3 3 0.185308
3 4 0.735093
3 5 0.572788
3 6 0.642092
