# FCC gold crystal relaxed using EAM potential of Grochola-JCP05
CRYSTAL FCC 
  
           4  atoms
           1  atom types

      0.000000000000       4.070110438486  xlo xhi
      0.000000000000       4.070110438486  ylo yhi
      0.000000000000       4.070110438486  zlo zhi

Masses
 
            1   196.96657            # Au 1

Atoms # atomic

1    1        2.035055219243       2.035055219243       0.000000000043
2    1        2.035055219243       0.000000000043       2.035055219243
3    1        0.000000000043       2.035055219243       2.035055219243
4    1        0.000000000043       0.000000000043       0.000000000043

