 # Ice-1h H20, this unit cell has been relaxed at 0 GPa using the TIP4P interatomic potential

CRYSTAL Hexagonal 
  
        12 atoms
	8 bonds
	4 angles
        2 atom types
	1 bond types
	1 angle types
 
      0.000000000000       4.445469209692  xlo xhi
      0.000000000000       3.828439285538  ylo yhi
      0.000000000000       7.233224726651  zlo zhi
      2.210350324579       0.000000000000       0.000000000000  xy xz yz
 
Masses
 
            1   1.00800000              # H 0
            2   15.99900000             # O 0
 
Atoms # full 
 
         1	1    2  -1.179400        1.127944604846       0.930516142769       6.683352363325 1
         2	1    1   0.589700        1.173974604846       0.003240242769       7.048552363325 1
         3	1    1   0.589700        1.957704604846       1.358308142769       7.033582363325 1
         4	2    2  -1.179400        3.345944604846       1.988348142769       3.065652363325 1
         5	2    1   0.589700        4.175954604846       1.563208142769       3.418662363325 1
         6	2    1   0.589700        3.385194604846       2.915258142769       3.432552363325 1
         7	3    2  -1.179400        3.353974604846       2.198168142769       0.359208363325 1
         8	3    1   0.589700        3.389404604846       2.112188142769       1.352442363325 1
         9	3    1   0.589700        4.180424604846       1.725328142769       0.060930363325 1
        10	4    2  -1.179400        1.126374604846       0.721028142769       3.976742363325 1
        11	4    1   0.589700        1.165074604846       0.806325142769       4.969702363325 1
        12	4    1   0.589700        1.952224604846       1.193338142769       3.675892363325 1

Bonds

	1	1	1	2
	2	1	1	3
	3	1	4	5
	4	1	4	6
	5	1	7	8
	6	1	7	9
	7	1	10	11
	8	1	10	12

Angles

	1	1	2	1	3
	2	1	5	4	6
	3	1	8	7	9
	4	1	11	10	12

