 # Coarse Grain Ih Ice (HCP) relaxed using Tersoff potential of Chan et al. 2019
  
CRYSTAL Hexagonal
  
           4  atoms
           1  atom types
 
      0.000000000000       4.459647662400  xlo xhi
      0.000000000000       3.862167032751  ylo yhi
      0.000000000000       7.274427734006  zlo zhi
      2.229823047388       0.000000000000       0.000000000000  xy xz yz
 
Masses
 
	1	18.0153	#	OH	1
 
Atoms # atomic
 
	1	1	1.177983831200	0.807439016376	6.732473867003	1	1
	2	1	3.407723831200	2.094652016376	3.095263867003	1	1
	3	1	3.407813831200	2.094832016376	0.366101867003	1	1
	4	1	1.177903831200	0.807262016376	4.003323867003	1	1

REFERENCE_BOND_ORIENTATIONAL_PARAMETERS
STEINHARDT_MODE OneL
NUMBER_OF_DIMENSION 6
CUTOFF_RADIUS 3.500000
1 1 0.855491
