 # Al2 O3
  
CRYSTAL Orthorhombic  
          40  atoms
           2  atom types
 
      0.000000000000       4.843700000000  xlo xhi
      0.000000000000       8.330000000000  ylo yhi
      0.000000000000       8.954700000000  zlo zhi
 
Masses
 
	1	26.98153860	#	Al	4
	2	15.99900000	#	O	6
 
Atoms # atomic
 
	1	1	3.287419190000	7.010528000000	0.000000000000	1	1
	2	1	0.894147020000	2.858856000000	7.045557960000	1	2
	3	1	3.930662550000	5.405337000000	6.243216840000	1	3
	4	1	3.234138490000	3.911768000000	8.948431710000	1	4
	5	2	1.593577300000	6.924729000000	7.993860690000	1	1
	6	2	0.120123760000	4.088364000000	5.634297240000	1	2
	7	2	2.284773290000	5.536951000000	5.713994070000	1	3
	8	2	2.492083650000	5.604424000000	1.085309640000	1	4
	9	2	4.169456960000	2.749733000000	7.756561140000	1	5
	10	2	1.627483200000	4.158336000000	8.059230000000	1	6
	11	1	0.865569190000	5.484472000000	0.000000000000	1	1
	12	1	3.315997020000	1.306144000000	7.045557960000	1	2
	13	1	1.508812550000	7.089663000000	6.243216840000	1	3
	14	1	0.812288490000	0.253232000000	8.948431710000	1	4
	15	2	4.015427300000	5.570271000000	7.993860690000	1	1
	16	2	2.541973760000	0.076636000000	5.634297240000	1	2
	17	2	4.706623290000	6.958049000000	5.713994070000	1	3
	18	2	0.070233650000	6.890576000000	1.085309640000	1	4
	19	2	1.747606960000	1.415267000000	7.756561140000	1	5
	20	2	4.049333200000	0.006664000000	8.059230000000	1	6
	21	1	3.978130810000	2.845528000000	4.477350000000	1	1
	22	1	1.527702980000	7.023856000000	2.568207960000	1	2
	23	1	3.334887450000	1.240337000000	1.765866840000	1	3
	24	1	4.031411510000	8.076768000000	4.471081710000	1	4
	25	2	0.828272700000	2.759729000000	3.516510690000	1	1
	26	2	2.301726240000	8.253364000000	1.156947240000	1	2
	27	2	0.137076710000	1.371951000000	1.236644070000	1	3
	28	2	4.773466350000	1.439424000000	5.562659640000	1	4
	29	2	3.096093040000	6.914733000000	3.279211140000	1	5
	30	2	0.794366800000	8.323336000000	3.581880000000	1	6
	31	1	1.556280810000	1.319472000000	4.477350000000	1	1
	32	1	3.949552980000	5.471144000000	2.568207960000	1	2
	33	1	0.913037450000	2.924663000000	1.765866840000	1	3
	34	1	1.609561510000	4.418232000000	4.471081710000	1	4
	35	2	3.250122700000	1.405271000000	3.516510690000	1	1
	36	2	4.723576240000	4.241636000000	1.156947240000	1	2
	37	2	2.558926710000	2.793049000000	1.236644070000	1	3
	38	2	2.351616350000	2.725576000000	5.562659640000	1	4
	39	2	0.674243040000	5.580267000000	3.279211140000	1	5
	40	2	3.216216800000	4.171664000000	3.581880000000	1	6

REFERENCE_BOND_ORIENTATIONAL_PARAMETERS
STEINHARDT_MODE OneL
NUMBER_OF_DIMENSION 12
CUTOFF_RADIUS 3.000000
1 1 0.822406
1 2 0.690937
1 3 0.557698
1 4 0.711532
2 1 0.836293
2 2 0.792176
2 3 0.871767
2 4 0.831163
2 5 0.804488
2 6 0.819522
