 # HCP Magnesium crystal

CRYSTAL Hexagonal
  
           2  atoms
           1  atom types
 
      0.000000000000       3.209270000000  xlo xhi
      0.000000000000       2.779309347603  ylo yhi
      0.000000000000       5.210330000000  zlo zhi
     -1.604635000000       0.000000000000       0.000000000000  xy xz yz
 
Masses
 
            1   24.30500000             # Mg 0 
 
Atoms # atomic
 
         1    1       -0.000001604635       1.852873824839       1.302582500000 1
         2    1        1.604636604635       0.926435522765       3.907747500000 1
