 # Nickel - Ni1
 
CRYSTAL Cubic
 
           4  atoms
           1  atom types
 
      0.000000000000       3.523800000000  xlo xhi
      0.000000000000       3.523800000000  ylo yhi
      0.000000000000       3.523800000000  zlo zhi
 
Masses
 
            1   58.69340000             # Ni 1
 
Atoms # atomic
 
         1    1        0.000000000000       0.000000000000       0.000000000000 1
         2    1        0.000000000000       1.761900000000       1.761900000000 1
         3    1        1.761900000000       1.761900000000       0.000000000000 1
         4    1        1.761900000000       0.000000000000       1.761900000000 1
