 # Ringwoodite Mg16Si8O32

CRYSTAL Cubic 
  
          56  atoms
           3  atom types
 
      0.000000000000       8.153380000000  xlo xhi
      0.000000000000       8.153380000000  ylo yhi
      0.000000000000       8.153380000000  zlo zhi
 
Masses
 
            1   24.30500000             # Mg 1
            2   28.08500000             # Si 1
            3   15.99900000             # O 1
 
Atoms # atomic
 
         1    1        7.134207500000       7.134207500000       1.01917250000 1
         2    1        3.057517500000       1.019172500000       3.05751750000 1
         3    1        5.095862500000       7.134207500000       3.05751750000 1
         4    1        1.019172500000       1.019172500000       1.01917250000 1
         5    1        7.134207500000       3.057517500000       5.09586250000 1
         6    1        3.057517500000       5.095862500000       7.13420750000 1
         7    1        5.095862500000       3.057517500000       7.13420750000 1
         8    1        1.019172500000       5.095862500000       5.09586250000 1
         9    1        3.057517500000       7.134207500000       5.09586250000 1
        10    1        7.134207500000       1.019172500000       7.13420750000 1
        11    1        1.019172500000       7.134207500000       7.13420750000 1
        12    1        5.095862500000       1.019172500000       5.09586250000 1
        13    1        3.057517500000       3.057517500000       1.01917250000 1
        14    1        7.134207500000       5.095862500000       3.05751750000 1
        15    1        1.019172500000       3.057517500000       3.05751750000 1
        16    1        5.095862500000       5.095862500000       1.01917250000 1
        17    2        2.038345000000       6.115035000000       2.03834500000 1
        18    2        0.000000000000       0.000000000000       4.07669000000 1
        19    2        2.038345000000       2.038345000000       6.11503500000 1
        20    2        0.000000000000       4.076690000000       0.00000000000 1
        21    2        6.115035000000       6.115035000000       6.11503500000 1
        22    2        4.076690000000       0.000000000000       0.00000000000 1
        23    2        6.115035000000       2.038345000000       2.03834500000 1
        24    2        4.076690000000       4.076690000000       4.07669000000 1
        25    3        0.970779499085       0.970779499085       3.10591050091 1
        26    3        0.970779499085       3.105910500915       0.97077949908 1
        27    3        3.105910500915       0.970779499085       0.97077949908 1
        28    3        3.105910500915       3.105910500915       3.10591050091 1
        29    3        5.144255500915       1.067565500915       3.00912449908 1
        30    3        1.067565500915       7.085814499085       1.06756550091 1
        31    3        7.085814499085       1.067565500915       1.06756550091 1
        32    3        3.009124499085       7.085814499085       3.00912449908 1
        33    3        0.970779499085       5.047469499085       7.18260050091 1
        34    3        0.970779499085       7.182600500915       5.04746949908 1
        35    3        3.105910500915       5.047469499085       5.04746949908 1
        36    3        3.105910500915       7.182600500915       7.18260050091 1
        37    3        5.144255500915       5.144255500915       7.08581449908 1
        38    3        1.067565500915       3.009124499085       5.14425550091 1
        39    3        7.085814499085       5.144255500915       5.14425550091 1
        40    3        3.009124499085       3.009124499085       7.08581449908 1
        41    3        5.047469499085       0.970779499085       7.18260050091 1
        42    3        5.047469499085       3.105910500915       5.04746949908 1
        43    3        7.182600500915       0.970779499085       5.04746949908 1
        44    3        7.182600500915       3.105910500915       7.18260050091 1
        45    3        1.067565500915       1.067565500915       7.08581449908 1
        46    3        5.144255500915       7.085814499085       5.14425550091 1
        47    3        3.009124499085       1.067565500915       5.14425550091 1
        48    3        7.085814499085       7.085814499085       7.08581449908 1
        49    3        5.047469499085       5.047469499085       3.10591050091 1
        50    3        5.047469499085       7.182600500915       0.97077949908 1
        51    3        7.182600500915       5.047469499085       0.97077949908 1
        52    3        7.182600500915       7.182600500915       3.10591050091 1
        53    3        1.067565500915       5.144255500915       3.00912449908 1
        54    3        5.144255500915       3.009124499085       1.06756550091 1
        55    3        3.009124499085       5.144255500915       1.06756550091 1
        56    3        7.085814499085       3.009124499085       3.00912449908 1

REFERENCE_BOND_ORIENTATIONAL_PARAMETERS
STEINHARDT_MODE OneL
NUMBER_OF_DIMENSION 4
CUTOFF_RADIUS 6.000000
1 1 0.566464
2 1 1
3 1 0.924482
