 # Diamond cubic silicon - Si
  
CRYSTAL Cubic 

           8  atoms
           1  atom types
 
      0.000000000000       5.430941000000  xlo xhi
      0.000000000000       5.430941000000  ylo yhi
      0.000000000000       5.430941000000  zlo zhi
 
Masses
 
            1   28.08500000             # Si 0
 
Atoms # atomic
 
         1    1        0.000000000000       0.000000000000       0.000000000000 1
         2    1        0.000000000000       2.715470500000       2.715470500000 1
         3    1        2.715470500000       0.000000000000       2.715470500000 1
         4    1        2.715470500000       2.715470500000       0.000000000000 1
         5    1        4.073205750000       4.073205750000       1.357735250000 1
         6    1        1.357735250000       4.073205750000       4.073205750000 1
         7    1        1.357735250000       1.357735250000       1.357735250000 1
         8    1        4.073205750000       1.357735250000       4.073205750000 1
