 # Topaz - Al2 Si O4 F2
  
CRYSTAL Orthorhombic

          10  atoms
           4  atom types
 
      0.000000000000       4.584100000000  xlo xhi
      0.000000000000       8.730800000000  ylo yhi
      0.000000000000       8.231600000000  zlo zhi
 
Masses
 
	1	26.98153860	#	Al	1
	2	28.08500000	#	Si	1
	3	15.99900000	#	O	4
	4	18.99840320	#	F	1
 
Atoms # atomic
 
	1	1	4.157320290000	1.146354040000	0.664290120000	1	1
	2	2	1.840974560000	8.218302040000	2.057900000000	1	1
	3	3	3.613187620000	4.606370080000	2.057900000000	1	1
	4	3	2.058260900000	6.588261680000	2.057900000000	1	2
	5	3	3.596226450000	0.075084880000	7.485817040000	1	3
	6	4	4.160070750000	6.575165480000	0.537523480000	1	1
	7	1	0.000000000000	0.000000000000	0.000000000000	1	1
	8	2	0.000000000000	0.000000000000	0.000000000000	1	1
	9	3	0.000000000000	0.000000000000	0.000000000000	1	4
	10	4	0.000000000000	0.000000000000	0.000000000000	1	1

REFERENCE_BOND_ORIENTATIONAL_PARAMETERS
STEINHARDT_MODE OneL
NUMBER_OF_DIMENSION 6
CUTOFF_RADIUS 5.000000
1 1 0.769909
2 1 0.585056
3 1 0.388614
3 2 0.301328
3 3 0.48058
3 4 0.550152
4 1 0.407873
