 # BCC Tungsten - W
  
CRYSTAL Cubic 

           2  atoms
           1  atom types
 
      0.000000000000       3.164690000000  xlo xhi
      0.000000000000       3.164690000000  ylo yhi
      0.000000000000       3.164690000000  zlo zhi
 
Masses
 
            1   183.84000000            # W 1
 
Atoms # atomic
 
         1    1        0.000000000000       0.000000000000       0.000000000000 1
         2    1        1.582345000000       1.582345000000       1.582345000000 1
