 # Wadsleyite - Mg2SiO4

CRYSTAL Orthorhombic  
  
          56  atoms
           3  atom types
 
      0.000000000000       5.698300000000  xlo xhi
      0.000000000000      11.438000000000  ylo yhi
      0.000000000000       8.256600000000  zlo zhi
 
Masses
 
	1	24.30500000	#	Mg	3
	2	28.08500000	#	Si	1
	3	15.99900000	#	O	4
 
Atoms # atomic
 
	1	1	0.000000000000	0.000000000000	0.00000000000	1	1
	2	1	0.000000000000	2.859500000000	8.00972766000	1	2
	3	1	1.424575000000	1.459488800000	2.06415000000	1	3
	4	2	5.698300000000	1.370272400000	5.09267088000	1	1
	5	3	0.000000000000	2.859500000000	1.78837956000	1	1
	6	3	0.000000000000	2.859500000000	5.91502824000	1	2
	7	3	0.000000000000	11.323620000000	2.11203828000	1	3
	8	3	1.490105450000	1.401155000000	8.19467550000	1	4
	9	1	2.849150000000	5.719000000000	4.12830000000	1	1
	10	1	2.849150000000	8.578500000000	3.88142766000	1	2
	11	1	4.273725000000	7.178488800000	6.19245000000	1	3
	12	2	2.849150000000	7.089272400000	0.96437088000	1	1
	13	3	2.849150000000	8.578500000000	5.91667956000	1	1
	14	3	2.849150000000	8.578500000000	1.78672824000	1	2
	15	3	2.849150000000	5.604620000000	6.24033828000	1	3
	16	3	4.339255450000	7.120155000000	4.06637550000	1	4
	17	1	0.000000000000	5.719000000000	0.00000000000	1	1
	18	1	1.424575000000	4.259511200000	2.06415000000	1	3
	19	2	0.000000000000	4.348727600000	5.09267088000	1	1
	20	3	0.000000000000	5.833380000000	2.11203828000	1	3
	21	3	1.490105450000	4.317845000000	8.19467550000	1	4
	22	1	2.849150000000	0.000000000000	4.12830000000	1	1
	23	1	4.273725000000	9.978511200000	6.19245000000	1	3
	24	2	2.849150000000	10.067727600000	0.96437088000	1	1
	25	3	2.849150000000	0.114380000000	6.24033828000	1	3
	26	3	4.339255450000	10.036845000000	4.06637550000	1	4
	27	1	5.698300000000	8.578500000000	0.24687234000	1	2
	28	2	0.000000000000	7.089272400000	3.16392912000	1	1
	29	3	5.698300000000	8.578500000000	6.46822044000	1	1
	30	3	5.698300000000	8.578500000000	2.34157176000	1	2
	31	3	5.698300000000	5.604620000000	6.14456172000	1	3
	32	3	4.208194550000	7.120155000000	0.06192450000	1	4
	33	1	2.849150000000	2.859500000000	4.37517234000	1	2
	34	2	2.849150000000	1.370272400000	7.29222912000	1	1
	35	3	2.849150000000	2.859500000000	2.33992044000	1	1
	36	3	2.849150000000	2.859500000000	6.46987176000	1	2
	37	3	2.849150000000	11.323620000000	2.01626172000	1	3
	38	3	1.359044550000	1.401155000000	4.19022450000	1	4
	39	2	0.000000000000	10.067727600000	3.16392912000	1	1
	40	3	5.698300000000	0.114380000000	6.14456172000	1	3
	41	3	4.208194550000	10.036845000000	0.06192450000	1	4
	42	2	2.849150000000	4.348727600000	7.29222912000	1	1
	43	3	2.849150000000	5.833380000000	2.01626172000	1	3
	44	3	1.359044550000	4.317845000000	4.19022450000	1	4
	45	1	4.273725000000	1.459488800000	2.06415000000	1	3
	46	3	4.208194550000	1.401155000000	8.19467550000	1	4
	47	1	1.424575000000	7.178488800000	6.19245000000	1	3
	48	3	1.359044550000	7.120155000000	4.06637550000	1	4
	49	1	4.273725000000	4.259511200000	2.06415000000	1	3
	50	3	4.208194550000	4.317845000000	8.19467550000	1	4
	51	1	1.424575000000	9.978511200000	6.19245000000	1	3
	52	3	1.359044550000	10.036845000000	4.06637550000	1	4
	53	3	1.490105450000	7.120155000000	0.06192450000	1	4
	54	3	4.339255450000	1.401155000000	4.19022450000	1	4
	55	3	1.490105450000	10.036845000000	0.06192450000	1	4
	56	3	4.339255450000	4.317845000000	4.19022450000	1	4

REFERENCE_BOND_ORIENTATIONAL_PARAMETERS
STEINHARDT_MODE OneL
NUMBER_OF_DIMENSION 6
CUTOFF_RADIUS 8.000000
1 1 0.461733
1 2 0.608102
1 3 0.669465
2 1 0.895658
3 1 0.611331
3 2 0.392115
3 3 0.464619
3 4 0.548546
