 # HCP Zirconium - Zr

CRYSTAL Hexagonal
  
           2  atoms
           1  atom types
 
      0.000000000000       3.232000000000  xlo xhi
      0.000000000000       2.798994105031  ylo yhi
      0.000000000000       5.147000000000  zlo zhi
     -1.616000000000       0.000000000000       0.000000000000  xy xz yz
 
Masses
 
            1   91.22400000             # Zr 0
 
Atoms # atomic
 
         1    1       -0.000016160000       1.866005400001       1.286750000000 1
         2    1        1.616000000000       0.933016694971       3.860250000000 1
