ITEM: TIMESTEP
0
ITEM: NUMBER OF ATOMS
700
ITEM: BOX BOUNDS pp pp pp
0	17.5532
0	117.998
0	159.277
ITEM: ATOMS id type element xu yu zu Steinhardt[1] Steinhardt[2]
1 1 Ni 0 0 0 1.1418673293712507 0.17571014983714398
2 1 Ni 0 0 0 1.0333155136960668 -0.03694242433613509
3 1 Ni 0 0 0 1.1257014759931208 0.1503644624818458
4 1 Ni 0 0 0 1.0859048269890537 0.03626753731329594
5 1 Ni 0 0 0 1.0676170750226142 0.049417359298879575
6 1 Ni 0 0 0 1.0336253668569992 -0.021865962008290718
7 1 Ni 0 0 0 1.1030820492420501 0.12661092522794454
8 1 Ni 0 0 0 1.0460066480913606 0.0357756009191553
9 1 Ni 0 0 0 1.0685608311230441 0.07806883034751261
10 1 Ni 0 0 0 1.1160533765279494 0.1544243985416015
11 1 Ni 0 0 0 1.0978704976587819 0.047721600732594585
12 1 Ni 0 0 0 1.102962086063157 0.08869308733062375
13 1 Ni 0 0 0 1.0667964962439895 0.07641796483990898
14 1 Ni 0 0 0 1.074955947925297 0.06923167569236652
15 1 Ni 0 0 0 1.0710481379298074 0.023945357242090244
16 1 Ni 0 0 0 1.1220304739945046 0.15616484464297403
17 1 Ni 0 0 0 1.1041048130938258 0.08514264371695435
18 1 Ni 0 0 0 1.1109397385259792 0.14117469076162514
19 1 Ni 0 0 0 1.1286516107052638 0.1984121553424566
20 1 Ni 0 0 0 1.0840826891801483 0.12801439505115153
21 1 Ni 0 0 0 1.0857732602992451 0.06431136453905428
22 1 Ni 0 0 0 1.1011152940980236 0.0985583171214245
23 1 Ni 0 0 0 1.0446786751606645 0.022648410544079692
24 1 Ni 0 0 0 1.0986065467744905 0.10037924402554563
25 1 Ni 0 0 0 1.0601970384359038 0.0607438959728909
26 1 Ni 0 0 0 1.0844139735478604 0.08622827966272512
27 1 Ni 0 0 0 1.0991804844870785 0.1423539833500609
28 1 Ni 0 0 0 1.060538883581254 0.018199291460260864
29 1 Ni 0 0 0 1.1095471584389576 0.14230146458435758
30 1 Ni 0 0 0 1.0933909943179514 0.07913758245328426
31 1 Ni 0 0 0 1.1206809316757933 0.13558364829994854
32 1 Ni 0 0 0 1.0925284879422625 0.06836934851492549
33 1 Ni 0 0 0 1.0942346365555 0.13157660660181358
34 1 Ni 0 0 0 1.1101574336069062 0.08921818648758971
35 1 Ni 0 0 0 1.0806286155010025 0.07390274352817412
36 1 Ni 0 0 0 1.120804278881948 0.12626320021199297
37 1 Ni 0 0 0 1.1000298509205761 0.15783265814248468
38 1 Ni 0 0 0 1.100121308393225 0.10475228418718473
39 1 Ni 0 0 0 1.1223287841189098 0.1757168985641907
40 1 Ni 0 0 0 1.1532660752496269 0.1371793690869813
41 1 Ni 0 0 0 1.0888269383668634 0.07282659128156113
42 1 Ni 0 0 0 1.0591880493641235 0.023042060126891112
43 1 Ni 0 0 0 1.1099475637611427 0.0836126651896707
44 1 Ni 0 0 0 1.0998066856713768 0.08923025638405548
45 1 Ni 0 0 0 1.050525838136962 0.035959736117198854
46 1 Ni 0 0 0 1.084911456321095 0.05819392774099458
47 1 Ni 0 0 0 1.0643039012416045 0.04442438741595457
48 1 Ni 0 0 0 1.0538115821697012 0.007807727326654718
49 1 Ni 0 0 0 1.0842067881152355 0.08253140551134572
50 1 Ni 0 0 0 1.123344102252447 0.10945785247380205
51 1 Ni 0 0 0 1.1331115340975924 0.13216891653654522
52 1 Ni 0 0 0 1.1053823303755035 0.10025388467468838
53 1 Ni 0 0 0 1.1184320932262055 0.18092744794636348
54 1 Ni 0 0 0 1.1108917183628593 0.10749139201005656
55 1 Ni 0 0 0 1.0649029842913484 0.036032242392804184
56 1 Ni 0 0 0 1.0052550984277877 -0.051577910082027806
57 1 Ni 0 0 0 1.0795727108465756 0.09669055020411835
58 1 Ni 0 0 0 1.1207498296061125 0.15865426883455325
59 1 Ni 0 0 0 1.0829139663304963 0.10070076928022696
60 1 Ni 0 0 0 1.0631882542243973 0.08977925998518507
61 1 Ni 0 0 0 1.0401359741887872 0.018017568238776135
62 1 Ni 0 0 0 1.0704115521891355 0.02514597487106498
63 1 Ni 0 0 0 1.1064079480157343 0.13624217468719463
64 1 Ni 0 0 0 1.1329160934758884 0.14750139458645325
65 1 Ni 0 0 0 1.055917586783836 0.03107941031714482
66 1 Ni 0 0 0 1.0940339693176986 0.07377646714423859
67 1 Ni 0 0 0 1.0792584094095583 0.08772351118790311
68 1 Ni 0 0 0 1.114403238407231 0.09706478229958126
69 1 Ni 0 0 0 1.0886390984513608 0.10161543923458832
70 1 Ni 0 0 0 1.080531601274331 0.08669379328532317
71 1 Ni 0 0 0 1.1041199718605348 0.07698165179058108
72 1 Ni 0 0 0 1.090025937491496 0.10406279955580278
73 1 Ni 0 0 0 1.0815040798656312 0.040963309682007946
74 1 Ni 0 0 0 1.1481058947730263 0.14513819639827585
75 1 Ni 0 0 0 1.1094460029616675 0.12676394128371488
76 1 Ni 0 0 0 1.1013468113055267 0.12004992952251185
77 1 Ni 0 0 0 1.0891168523652213 0.09420250822538141
78 1 Ni 0 0 0 1.0810060114879056 0.04419554375385131
79 1 Ni 0 0 0 1.10917624318409 0.06330736944671214
80 1 Ni 0 0 0 1.1055580111765821 0.14297638870740303
81 1 Ni 0 0 0 1.0451102045243312 0.02618315062921514
82 1 Ni 0 0 0 1.1061665665701992 0.139225380282112
83 1 Ni 0 0 0 1.1613484924928064 0.17985093379773137
84 1 Ni 0 0 0 1.1155105723864183 0.09850064664413619
85 1 Ni 0 0 0 1.049287029367345 -0.00726803334908209
86 1 Ni 0 0 0 1.1223877681572194 0.12492895775603508
87 1 Ni 0 0 0 1.1207443833885777 0.15983667233198184
88 1 Ni 0 0 0 1.117033874637161 0.1257589880080439
89 1 Ni 0 0 0 1.1183648746406982 0.12861660871911265
90 1 Ni 0 0 0 1.111581087432545 0.1241956874162177
91 1 Ni 0 0 0 1.1345682163820394 0.1602675421455544
92 1 Ni 0 0 0 1.155299085923084 0.21667715802680534
93 1 Ni 0 0 0 1.0799351825201253 0.04627782403556755
94 1 Ni 0 0 0 1.104477527749877 0.126365432457887
95 1 Ni 0 0 0 1.0698334257075117 0.03862086167389072
96 1 Ni 0 0 0 1.0827166244457396 0.06606490511119113
97 1 Ni 0 0 0 1.1357131267661051 0.1962707984719182
98 1 Ni 0 0 0 1.0472182041331966 0.040414829765615265
99 1 Ni 0 0 0 1.0958498035657758 0.08936766583257164
100 1 Ni 0 0 0 1.09774667056652 0.07818582029057641
101 1 Ni 0 0 0 1.073312298343411 0.05640219047506023
102 1 Ni 0 0 0 1.0906291597002462 0.05769342217854592
103 1 Ni 0 0 0 1.0837262274006347 0.10404633142864718
104 1 Ni 0 0 0 1.0968227651130646 0.0611378587455301
105 1 Ni 0 0 0 1.0281131498622424 0.010214413267829126
106 1 Ni 0 0 0 1.0615261952293105 0.012669159951593567
107 1 Ni 0 0 0 1.1169017182500385 0.16665701142999179
108 1 Ni 0 0 0 1.0979433762142692 0.114006625030403
109 1 Ni 0 0 0 1.041191991190987 0.017901294823169434
110 1 Ni 0 0 0 1.0660637638900352 0.0664377081507854
111 1 Ni 0 0 0 1.1288334303401188 0.15820759884111993
112 1 Ni 0 0 0 1.094505605273236 0.11918151417591857
113 1 Ni 0 0 0 1.1116312297864772 0.10625146964030008
114 1 Ni 0 0 0 1.110244447801947 0.1460462441535032
115 1 Ni 0 0 0 1.1075488822532553 0.11956075881247644
116 1 Ni 0 0 0 1.1162869830775044 0.1310952888105988
117 1 Ni 0 0 0 1.0951413228244307 0.06832321261506955
118 1 Ni 0 0 0 1.0560897324497651 0.05874497529532946
119 1 Ni 0 0 0 1.0735814230246692 0.0709559729012346
120 1 Ni 0 0 0 1.1083485585492805 0.11156101506197877
121 1 Ni 0 0 0 1.111084137665712 0.12545151015988087
122 1 Ni 0 0 0 1.0957402472801094 0.12089212851219672
123 1 Ni 0 0 0 1.1009237273246455 0.1538760040471359
124 1 Ni 0 0 0 1.154992317185832 0.18713335028508046
125 1 Ni 0 0 0 1.066573321834543 0.05727593500381322
126 1 Ni 0 0 0 1.0482741343251083 0.01685194086298432
127 1 Ni 0 0 0 1.089283240802268 0.04840911534919554
128 1 Ni 0 0 0 1.1198734675632507 0.15400512752953785
129 1 Ni 0 0 0 1.1067784226411952 0.12870746321924947
130 1 Ni 0 0 0 1.1419309720646729 0.1737219730486037
131 1 Ni 0 0 0 1.10675730926824 0.13821225819749133
132 1 Ni 0 0 0 1.0951525895923038 0.1258987382645731
133 1 Ni 0 0 0 1.1002216653982528 0.12816942949584742
134 1 Ni 0 0 0 1.078027221347188 0.06590405480827372
135 1 Ni 0 0 0 1.0393165166434322 -0.01733763980056305
136 1 Ni 0 0 0 1.1342647121251894 0.1384357317802684
137 1 Ni 0 0 0 1.120518436876838 0.17515777385055567
138 1 Ni 0 0 0 1.0831664618968753 0.028883699107396944
139 1 Ni 0 0 0 1.0546834566148606 0.05033498960850993
140 1 Ni 0 0 0 1.0950511100923184 0.09083619306228732
141 1 Ni 0 0 0 1.0758118531207104 0.06095224697092515
142 1 Ni 0 0 0 1.1193926930604432 0.13400370682573376
143 1 Ni 0 0 0 1.0607696797256179 0.024128907064069595
144 1 Ni 0 0 0 1.0803104263615169 0.08116183000525982
145 1 Ni 0 0 0 1.084012244933275 0.07149386418003568
146 1 Ni 0 0 0 1.1206459241390991 0.13667808165333048
147 1 Ni 0 0 0 1.047158398605393 0.03948238461222755
148 1 Ni 0 0 0 1.101222176189158 0.12811815472636817
149 1 Ni 0 0 0 1.0779946617239522 0.0701060831917749
150 1 Ni 0 0 0 1.0867057416528627 0.07661733865660363
151 1 Ni 0 0 0 1.1280205580983471 0.1731075837760913
152 1 Ni 0 0 0 1.0848847755925526 0.038271980003888394
153 1 Ni 0 0 0 1.0515737232562352 0.0502425480141625
154 1 Ni 0 0 0 1.0907403434122522 0.022406305531185264
155 1 Ni 0 0 0 1.0947489151537235 0.12491078750492379
156 1 Ni 0 0 0 1.0859087488317323 0.10783091504785428
157 1 Ni 0 0 0 1.056292065414959 0.04934761021927848
158 1 Ni 0 0 0 1.0756831212168476 0.05823588138102623
159 1 Ni 0 0 0 1.137983605035057 0.16706666677016285
160 1 Ni 0 0 0 1.1411629048621756 0.1073462771197699
161 1 Ni 0 0 0 1.0966556029210734 0.07898886434897048
162 1 Ni 0 0 0 1.1082293714981264 0.13379468327270194
163 1 Ni 0 0 0 1.0366018695659351 0.042221236666995045
164 1 Ni 0 0 0 0.9916130302325674 -0.10709902439974595
165 1 Ni 0 0 0 1.094159482986113 0.0862575702329255
166 1 Ni 0 0 0 1.0869731051923504 0.10118695071328251
167 1 Ni 0 0 0 1.121948984930431 0.15930486732839066
168 1 Ni 0 0 0 1.1176689579444383 0.11225759293491594
169 1 Ni 0 0 0 1.1625404892399105 0.20765425541268165
170 1 Ni 0 0 0 1.1303259548112132 0.16527870760053098
171 1 Ni 0 0 0 1.0456486121573154 0.004826334264421153
172 1 Ni 0 0 0 1.126576691022877 0.13200646583599643
173 1 Ni 0 0 0 1.0830618065211348 0.031122537480347996
174 1 Ni 0 0 0 1.1041051664990198 0.12710372023022262
175 1 Ni 0 0 0 1.0967030412814869 0.12488403001426077
176 1 Ni 0 0 0 1.063010014641243 0.02882066316927759
177 1 Ni 0 0 0 1.0505172653973667 0.014772573419633075
178 1 Ni 0 0 0 1.11475386071513 0.15463417662384205
179 1 Ni 0 0 0 1.0932190449322763 0.11101480595097243
180 1 Ni 0 0 0 1.1204075364701749 0.11525800995003366
181 1 Ni 0 0 0 1.0194581726386074 -0.019812215074588926
182 1 Ni 0 0 0 1.0704685478559928 0.09007299672745996
183 1 Ni 0 0 0 1.033951183618538 0.008220084594412536
184 1 Ni 0 0 0 1.0792430642241668 0.06230413118247631
185 1 Ni 0 0 0 1.0991274512018352 0.10462774129154638
186 1 Ni 0 0 0 1.0931822201473724 0.12432106140822055
187 1 Ni 0 0 0 1.1216108024142994 0.12795502362095987
188 1 Ni 0 0 0 1.089127552887238 0.10125401933340004
189 1 Ni 0 0 0 1.0946170414552479 0.10681544752923536
190 1 Ni 0 0 0 1.07094072959596 0.039965378439016444
191 1 Ni 0 0 0 1.1068605056575374 0.09363246362390583
192 1 Ni 0 0 0 1.1173894491174237 0.0754634509953879
193 1 Ni 0 0 0 1.1198974393545884 0.12384557818965683
194 1 Ni 0 0 0 1.08879627096627 0.0884125472664526
195 1 Ni 0 0 0 1.0632682826185513 0.05181873541888033
196 1 Ni 0 0 0 1.0828486475999652 0.13714803082183286
197 1 Ni 0 0 0 1.0691962853011372 0.04486239653719748
198 1 Ni 0 0 0 1.135194161186664 0.1710673094689713
199 1 Ni 0 0 0 1.0948049278488803 0.133532359309818
200 1 Ni 0 0 0 1.00301576220294 -0.07232588519016686
201 1 Ni 0 0 0 1.0595400517551194 0.05503818573426347
202 1 Ni 0 0 0 1.0315136009637165 -0.00460199539272696
203 1 Ni 0 0 0 1.0566133028558184 0.014970035223194539
204 1 Ni 0 0 0 1.121979987245543 0.11512838880670655
205 1 Ni 0 0 0 1.0734932288215704 0.06431056235440616
206 1 Ni 0 0 0 1.066916543486754 0.07250562752805959
207 1 Ni 0 0 0 1.1165550892629004 0.14075604277698325
208 1 Ni 0 0 0 1.0937480388923901 0.13789997749728755
209 1 Ni 0 0 0 1.0738737259303213 0.03653525498947002
210 1 Ni 0 0 0 1.10324961662143 0.09845519510584223
211 1 Ni 0 0 0 1.129404040109406 0.1501032586508107
212 1 Ni 0 0 0 1.08080338783098 0.06038905835785803
213 1 Ni 0 0 0 1.117407109219108 0.07422721142113614
214 1 Ni 0 0 0 1.0778183553405531 0.07226964577786786
215 1 Ni 0 0 0 1.0875747972425127 0.08876614947026062
216 1 Ni 0 0 0 1.0852098873724636 0.07121304619728631
217 1 Ni 0 0 0 1.1104179273691974 0.13816427926065056
218 1 Ni 0 0 0 1.0787835195169502 0.055657127374544924
219 1 Ni 0 0 0 1.0713516940950099 0.06616958855931034
220 1 Ni 0 0 0 1.0503113520873266 0.007424891983014645
221 1 Ni 0 0 0 1.114578712497844 0.09143349579468585
222 1 Ni 0 0 0 1.0818852953706233 0.11829407892902656
223 1 Ni 0 0 0 1.0784405605314773 0.07255662356976253
224 1 Ni 0 0 0 1.0766223662496441 0.018307716385415798
225 1 Ni 0 0 0 1.069528478483211 0.044214189930390134
226 1 Ni 0 0 0 1.0899556305591191 0.09955264053975553
227 1 Ni 0 0 0 1.080693114450109 0.07087292466283049
228 1 Ni 0 0 0 1.1212586760647494 0.12739411720458918
229 1 Ni 0 0 0 1.1484705743342136 0.16806924722990482
230 1 Ni 0 0 0 1.0510901349130517 0.027087867286987234
231 1 Ni 0 0 0 1.132095144651811 0.17537671218842776
232 1 Ni 0 0 0 1.1060928555152656 0.04364014847788603
233 1 Ni 0 0 0 1.1107651376447303 0.16025088404998417
234 1 Ni 0 0 0 1.0795664288396765 0.06221613488054447
235 1 Ni 0 0 0 1.1321036620560345 0.1188561044244468
236 1 Ni 0 0 0 1.0912269967820176 0.08117180315953085
237 1 Ni 0 0 0 1.1177364536365175 0.14611299634811645
238 1 Ni 0 0 0 1.0299060121892691 0.0016179956263986661
239 1 Ni 0 0 0 1.0630261635997942 -0.037404863434479504
240 1 Ni 0 0 0 1.1362268771580715 0.16231104250487993
241 1 Ni 0 0 0 1.0792316336980277 0.06980170303112232
242 1 Ni 0 0 0 1.046602656412906 0.053274652386402103
243 1 Ni 0 0 0 1.1067450545878528 0.07674464005569127
244 1 Ni 0 0 0 1.0625727674787182 0.04163498319983534
245 1 Ni 0 0 0 1.1498859361216178 0.16094914808354716
246 1 Ni 0 0 0 1.0660574413836617 0.03844985053263616
247 1 Ni 0 0 0 1.0885720101467848 0.02246733183008895
248 1 Ni 0 0 0 1.120816750360401 0.1213029009899529
249 1 Ni 0 0 0 1.0824530120708518 0.06168885896543335
250 1 Ni 0 0 0 1.0989333458040518 0.07884887107554507
251 1 Ni 0 0 0 1.0823440868515521 0.08076273149537039
252 1 Ni 0 0 0 1.0941322853147208 0.0975185786307269
253 1 Ni 0 0 0 1.1003421614608961 0.1607545932961687
254 1 Ni 0 0 0 1.0342746060129175 -0.01563727497144217
255 1 Ni 0 0 0 1.0672081194121739 0.07286005369141625
256 1 Ni 0 0 0 1.1017935086545998 0.07355228958340253
257 1 Ni 0 0 0 1.1071159571234281 0.06785391811538281
258 1 Ni 0 0 0 1.0774026652572817 0.08445517081391256
259 1 Ni 0 0 0 1.0461133120812751 0.00764919224159856
260 1 Ni 0 0 0 1.0880377452849912 0.07918008455866322
261 1 Ni 0 0 0 1.1205305431896044 0.14291646638952343
262 1 Ni 0 0 0 1.1271092239273415 0.14210118281406675
263 1 Ni 0 0 0 1.074256683230375 0.08484940466181455
264 1 Ni 0 0 0 1.1458434575846526 0.16846460587788686
265 1 Ni 0 0 0 1.0444094008230127 0.03292097190234985
266 1 Ni 0 0 0 1.1151190689896904 0.15030787658112132
267 1 Ni 0 0 0 1.097524237728522 0.06582137097532445
268 1 Ni 0 0 0 1.044299053091773 -0.016533967712729525
269 1 Ni 0 0 0 1.0749386737113045 0.07349401808725889
270 1 Ni 0 0 0 1.0574464100067251 0.05731664684325891
271 1 Ni 0 0 0 1.0903231045329627 0.06363594674122228
272 1 Ni 0 0 0 1.0899004542341613 0.11684585781005058
273 1 Ni 0 0 0 1.0769109533310368 0.06334998432106567
274 1 Ni 0 0 0 1.0753675982259527 0.05090284284381288
275 1 Ni 0 0 0 1.0761052685109984 0.020926260320982187
276 1 Ni 0 0 0 1.0711472979138963 0.05684904122864471
277 1 Ni 0 0 0 1.1188331388585304 0.13281154329234485
278 1 Ni 0 0 0 1.1439560705313496 0.19386536286209727
279 1 Ni 0 0 0 1.154882657254939 0.15585174627814186
280 1 Ni 0 0 0 1.05132455925424 0.022256694608077346
281 1 Ni 0 0 0 1.0597736834890963 0.012077325946976775
282 1 Ni 0 0 0 1.117659784988348 0.15261864600346248
283 1 Ni 0 0 0 1.0655066570731533 0.0817551198487119
284 1 Ni 0 0 0 1.0501428068450454 0.02160447612057846
285 1 Ni 0 0 0 1.0821208609077115 0.09441277339863083
286 1 Ni 0 0 0 1.0889449065194028 0.10788046040342693
287 1 Ni 0 0 0 1.0475745948833115 -0.01480197853429488
288 1 Ni 0 0 0 1.12718436215113 0.15016119885586243
289 1 Ni 0 0 0 1.0732473444261506 0.049876753953452854
290 1 Ni 0 0 0 1.0496262511781251 0.00798875596739465
291 1 Ni 0 0 0 1.1419977553155065 0.1307346818889068
292 1 Ni 0 0 0 1.082792152164776 0.1143950022489283
293 1 Ni 0 0 0 1.1107507274973545 0.13097111131887135
294 1 Ni 0 0 0 1.0944663089215831 0.08238661940464345
295 1 Ni 0 0 0 1.1459190424030856 0.15719396644840009
296 1 Ni 0 0 0 1.117382312019294 0.13688659646969525
297 1 Ni 0 0 0 1.117792284759638 0.11119704809057017
298 1 Ni 0 0 0 1.072034265356317 0.06224537209631822
299 1 Ni 0 0 0 1.0928038835145315 0.13213890780160573
300 1 Ni 0 0 0 1.0524228130739115 -0.02815557406015458
301 1 Ni 0 0 0 1.112927934642905 0.08228871215144742
302 1 Ni 0 0 0 1.0903422124591176 0.11221175034300743
303 1 Ni 0 0 0 1.1434829934917026 0.17640503942635502
304 1 Ni 0 0 0 1.082542678498234 0.05122811996898994
305 1 Ni 0 0 0 1.0854352831978238 0.09138346430782063
306 1 Ni 0 0 0 1.107584782711595 0.10278226798733614
307 1 Ni 0 0 0 1.025395931296577 -0.021656076375066724
308 1 Ni 0 0 0 1.0419955013177387 0.09627355060839723
309 1 Ni 0 0 0 1.1129976841749278 0.11594107916274603
310 1 Ni 0 0 0 1.0915989396018364 0.06613250793197496
311 1 Ni 0 0 0 1.0925108497097173 0.06507284358468958
312 1 Ni 0 0 0 1.1119863946470123 0.13777378831033124
313 1 Ni 0 0 0 1.1016356354364232 0.093186243221024
314 1 Ni 0 0 0 1.1057331540122812 0.12652034427580228
315 1 Ni 0 0 0 1.0636878729255776 0.02641660401997404
316 1 Ni 0 0 0 1.071802781069837 0.030072282122006848
317 1 Ni 0 0 0 1.123554172293486 0.14918503752563833
318 1 Ni 0 0 0 1.0499868135725745 0.028557292521357386
319 1 Ni 0 0 0 1.0738073582435683 0.05415377794870662
320 1 Ni 0 0 0 1.0333403200620177 -0.01604798259320729
321 1 Ni 0 0 0 1.0886604841839778 0.0403047958956964
322 1 Ni 0 0 0 1.1257406165433201 0.1486306567715584
323 1 Ni 0 0 0 1.0830299454834715 0.060483122268628675
324 1 Ni 0 0 0 1.0471812283987854 0.024171922952877768
325 1 Ni 0 0 0 1.0451591145669188 0.0028376503545010923
326 1 Ni 0 0 0 1.0662530689045713 0.08788822558397988
327 1 Ni 0 0 0 1.1289891411277773 0.1504873400722959
328 1 Ni 0 0 0 1.074222721539706 0.062082410120737584
329 1 Ni 0 0 0 1.0782131985970203 0.055955848845575515
330 1 Ni 0 0 0 1.1240300641546086 0.11020643818844544
331 1 Ni 0 0 0 1.09741810320994 0.06599054841322277
332 1 Ni 0 0 0 1.0616930183029647 0.06615141295821032
333 1 Ni 0 0 0 1.0975631896357778 0.09195459402013889
334 1 Ni 0 0 0 1.094150644652317 0.11950088476835358
335 1 Ni 0 0 0 1.0899542014650963 0.12078212882757028
336 1 Ni 0 0 0 1.1188786857759674 0.1262463868133684
337 1 Ni 0 0 0 1.0910952764291018 0.07161979332264365
338 1 Ni 0 0 0 1.0808424407385702 0.10771438526998228
339 1 Ni 0 0 0 1.0538958197918453 0.05071134582668011
340 1 Ni 0 0 0 1.0856215764469959 0.067025485828893
341 1 Ni 0 0 0 1.0934593431747504 0.13216877659597007
342 1 Ni 0 0 0 1.091559506436056 0.08589928459090052
343 1 Ni 0 0 0 1.0861486853542273 0.09365675497292425
344 1 Ni 0 0 0 1.1099921978805425 0.1290239894677797
345 1 Ni 0 0 0 1.107027807576852 0.08876994155327433
346 1 Ni 0 0 0 1.1400708354911862 0.15526334389485463
347 1 Ni 0 0 0 1.0837267342147676 0.04175298168827894
348 1 Ni 0 0 0 1.1056662593827158 0.12103772093392978
349 1 Ni 0 0 0 1.0708855651048619 0.018545188392009887
350 1 Ni 0 0 0 1.0855723468864638 0.08308814788805349
351 1 Ni 0 0 0 1.1016422978361367 0.12471251220595565
352 1 Ni 0 0 0 1.1138108448861381 0.11428653243467876
353 1 Ni 0 0 0 1.06153346060507 0.04449006057276269
354 1 Ni 0 0 0 1.0614513058240302 0.02224510791585478
355 1 Ni 0 0 0 1.0964098051177609 0.09412424083192238
356 1 Ni 0 0 0 1.1494416446969844 0.18506238810828035
357 1 Ni 0 0 0 1.1556703464205906 0.175006610319246
358 1 Ni 0 0 0 1.0813895591355118 0.04583237382941932
359 1 Ni 0 0 0 1.054767039701831 0.05567098588928277
360 1 Ni 0 0 0 1.094128567407361 0.09627075629117733
361 1 Ni 0 0 0 1.1051323514183076 0.11852858485672144
362 1 Ni 0 0 0 1.0600935443651298 0.047269266568340663
363 1 Ni 0 0 0 1.0947258451550508 0.09698322196027724
364 1 Ni 0 0 0 1.128323546306953 0.16481876658053812
365 1 Ni 0 0 0 1.1216449512203037 0.14167208176300145
366 1 Ni 0 0 0 1.1225485456481947 0.14734099770625514
367 1 Ni 0 0 0 1.0775832273961095 0.06094715908729739
368 1 Ni 0 0 0 1.0897612031518669 0.0857808533202495
369 1 Ni 0 0 0 1.081727831818076 0.0930187005269186
370 1 Ni 0 0 0 1.1221515330279868 0.1312337418062817
371 1 Ni 0 0 0 1.0425802927836731 -0.01231614468251635
372 1 Ni 0 0 0 1.1215987600979804 0.13666503011317563
373 1 Ni 0 0 0 1.0755738310133107 0.11363925328892938
374 1 Ni 0 0 0 1.0526333022869598 0.0011492796785670112
375 1 Ni 0 0 0 1.070239962591877 0.045067920832714
376 1 Ni 0 0 0 1.035479231491642 0.0020713031036432433
377 1 Ni 0 0 0 1.1233346708106928 0.13481178652840284
378 1 Ni 0 0 0 1.1046611251207554 0.14815343055136024
379 1 Ni 0 0 0 1.0385911046598502 0.020626696315618462
380 1 Ni 0 0 0 1.0925065120909088 0.10799754045089131
381 1 Ni 0 0 0 1.1025880357828055 0.04812903264853919
382 1 Ni 0 0 0 1.1035609664468302 0.11219639500125579
383 1 Ni 0 0 0 1.0859695797529623 0.07031767607165212
384 1 Ni 0 0 0 1.1330798166837746 0.15169870768238924
385 1 Ni 0 0 0 1.1112228188319027 0.05178175926304835
386 1 Ni 0 0 0 1.1279198349327728 0.16461206856482352
387 1 Ni 0 0 0 1.0653943809533195 0.06235861231122651
388 1 Ni 0 0 0 1.0345348981066433 -0.006156265683003828
389 1 Ni 0 0 0 1.1396163123081835 0.16680081152714238
390 1 Ni 0 0 0 1.0987442844912134 0.05021414999398284
391 1 Ni 0 0 0 1.1080882420085225 0.1335680077835686
392 1 Ni 0 0 0 1.1361380943164658 0.1681116280861917
393 1 Ni 0 0 0 0.9999702741258731 -0.033064275991450606
394 1 Ni 0 0 0 1.0951259842232006 0.07903466958131936
395 1 Ni 0 0 0 1.091463083356293 0.09067139552076232
396 1 Ni 0 0 0 1.0813845195455667 0.06090175710022401
397 1 Ni 0 0 0 1.0685044519183824 0.05348406964571675
398 1 Ni 0 0 0 1.0944294240240637 0.06944410448674325
399 1 Ni 0 0 0 1.0627998543596133 0.04754196187162623
400 1 Ni 0 0 0 1.0954362853055961 0.07896252986035658
401 1 Ni 0 0 0 1.070001222802196 0.06487183618019464
402 1 Ni 0 0 0 1.1322571960420977 0.17513234466880334
403 1 Ni 0 0 0 1.0571748598954498 0.05709679897756662
404 1 Ni 0 0 0 1.0863570579103103 0.024270783454763994
405 1 Ni 0 0 0 1.0343281340515709 0.003196522629946158
406 1 Ni 0 0 0 1.073301430377417 0.03065155558224414
407 1 Ni 0 0 0 1.124911528509434 0.14506400966531238
408 1 Ni 0 0 0 1.063575839876198 0.024745031559622564
409 1 Ni 0 0 0 1.1244289885723011 0.11996007586726584
410 1 Ni 0 0 0 1.0821467083114422 0.09134060790457131
411 1 Ni 0 0 0 1.1269593080038092 0.13300807304957893
412 1 Ni 0 0 0 1.1001622860764384 0.1036059686434432
413 1 Ni 0 0 0 1.1083264740178198 0.11594145913805785
414 1 Ni 0 0 0 1.1257712807721487 0.1467123244309762
415 1 Ni 0 0 0 1.1024586692012779 0.11040359565344585
416 1 Ni 0 0 0 1.106958330803371 0.1362505015015568
417 1 Ni 0 0 0 1.077582790775312 0.08652627405306558
418 1 Ni 0 0 0 1.1304101171146839 0.1416358485643541
419 1 Ni 0 0 0 1.1315596522062257 0.17452724435090294
420 1 Ni 0 0 0 1.0990251309761456 0.1426734985181423
421 1 Ni 0 0 0 1.0459245206923713 0.009619149219509626
422 1 Ni 0 0 0 1.1061898838654642 0.13220690995070455
423 1 Ni 0 0 0 1.097002194109347 0.08947186539110714
424 1 Ni 0 0 0 1.0895928820199918 0.07569465272946291
425 1 Ni 0 0 0 1.1467722203939434 0.13980696072427307
426 1 Ni 0 0 0 1.1118233531559516 0.14747242301680524
427 1 Ni 0 0 0 1.0986232952893098 0.09402929376669737
428 1 Ni 0 0 0 1.0907459919994382 0.06514670766980761
429 1 Ni 0 0 0 1.0608114373651445 0.03792334289964345
430 1 Ni 0 0 0 1.1253728837932322 0.14828575862945573
431 1 Ni 0 0 0 1.080215243818977 0.07978345785751714
432 1 Ni 0 0 0 1.1083149704376514 0.1175169419413519
433 1 Ni 0 0 0 1.0986325652547084 0.08841118250838338
434 1 Ni 0 0 0 1.1385676838559158 0.17253174162536844
435 1 Ni 0 0 0 1.1080730490527346 0.14016741133420957
436 1 Ni 0 0 0 1.0826978527606514 0.05780684353114792
437 1 Ni 0 0 0 1.1124797063912746 0.12849321919699414
438 1 Ni 0 0 0 1.0756659472729455 0.08549801213152959
439 1 Ni 0 0 0 1.0618043547282434 0.028653235140004167
440 1 Ni 0 0 0 1.106150269879733 0.1208018069871902
441 1 Ni 0 0 0 1.086793584981276 0.10921048867320837
442 1 Ni 0 0 0 1.107711957401728 0.1255901769400159
443 1 Ni 0 0 0 1.113868739741761 0.14423791249189116
444 1 Ni 0 0 0 1.153757692785839 0.1998842607032228
445 1 Ni 0 0 0 1.1163176133579518 0.17656003612640964
446 1 Ni 0 0 0 1.0693598566671678 0.025375855572451846
447 1 Ni 0 0 0 1.1322501933494349 0.1322923153260525
448 1 Ni 0 0 0 1.092654247270266 0.11543352170432997
449 1 Ni 0 0 0 1.0694208017561293 0.05853217854375238
450 1 Ni 0 0 0 1.103938962277456 0.10599808076854135
451 1 Ni 0 0 0 1.0815078988905356 0.06090610994949612
452 1 Ni 0 0 0 1.1001338776489937 0.05756861448738532
453 1 Ni 0 0 0 1.0608439955668618 0.0701378780634362
454 1 Ni 0 0 0 1.0887440802435673 0.07840142447846857
455 1 Ni 0 0 0 1.1109796596759784 0.14160883378850234
456 1 Ni 0 0 0 1.0716989345615784 0.056881610285960574
457 1 Ni 0 0 0 1.127735948784868 0.17711928607875557
458 1 Ni 0 0 0 1.080618886022353 0.05193358271662095
459 1 Ni 0 0 0 1.079962483184886 0.10045213606881415
460 1 Ni 0 0 0 1.0882400786703024 0.0679188188949805
461 1 Ni 0 0 0 1.116233843073488 0.11488395734397074
462 1 Ni 0 0 0 1.0550039899082833 0.051727695447105836
463 1 Ni 0 0 0 1.1028739961888179 0.07659336480263168
464 1 Ni 0 0 0 1.0971864923033168 0.12544726801898895
465 1 Ni 0 0 0 1.1141217335990434 0.17409317187536835
466 1 Ni 0 0 0 1.1312236549335717 0.14879314383801562
467 1 Ni 0 0 0 1.112345023134571 0.0936951166074054
468 1 Ni 0 0 0 1.088770966236391 0.12013107732398409
469 1 Ni 0 0 0 1.095358846918067 0.0948175086332286
470 1 Ni 0 0 0 1.0769792400137075 0.08201970562205538
471 1 Ni 0 0 0 1.1115717535507885 0.0934164550588449
472 1 Ni 0 0 0 1.121907022627035 0.12493053079781566
473 1 Ni 0 0 0 1.0493688691117207 0.05385543738646193
474 1 Ni 0 0 0 1.0808606318720477 0.06998321386220518
475 1 Ni 0 0 0 1.0922220837232017 0.0714989045661008
476 1 Ni 0 0 0 1.0878828460270347 0.0672241827717679
477 1 Ni 0 0 0 1.076976411646942 0.03040333318976448
478 1 Ni 0 0 0 1.1252947783426899 0.11734049151889746
479 1 Ni 0 0 0 1.10508409815489 0.09077680487449899
480 1 Ni 0 0 0 1.068914982604899 0.033400197346691626
481 1 Ni 0 0 0 1.1205270751880343 0.1542392967553144
482 1 Ni 0 0 0 1.086370172369273 0.04695848711120756
483 1 Ni 0 0 0 1.1073085211839706 0.12099205414745651
484 1 Ni 0 0 0 1.0337847256924357 -0.0625826304591531
485 1 Ni 0 0 0 1.1289546185712427 0.15600950977274125
486 1 Ni 0 0 0 1.097970742508358 0.08709174483550773
487 1 Ni 0 0 0 1.1034541035530525 0.13342586225732078
488 1 Ni 0 0 0 1.0724372019791752 0.07245438024767531
489 1 Ni 0 0 0 1.0667965619930813 0.05566733139384847
490 1 Ni 0 0 0 1.0905964020695054 0.06698606009273282
491 1 Ni 0 0 0 1.0604215617469208 0.05583989991452768
492 1 Ni 0 0 0 1.0721166260568047 0.07510357245137034
493 1 Ni 0 0 0 1.0711315438580111 0.06498830127398708
494 1 Ni 0 0 0 1.163294305709946 0.23832705090493334
495 1 Ni 0 0 0 1.1164210081505148 0.14150200910998856
496 1 Ni 0 0 0 1.0988726862392215 0.10200575359079136
497 1 Ni 0 0 0 1.093739159187129 0.08413214683436185
498 1 Ni 0 0 0 1.157909263766027 0.1702886493046566
499 1 Ni 0 0 0 1.1247296908836866 0.16598203021462157
500 1 Ni 0 0 0 1.1520206387519965 0.2180858718204666
501 1 Ni 0 0 0 1.1474160271964595 0.22028331051429226
502 1 Ni 0 0 0 1.1132136685136271 0.14261795843735203
503 1 Ni 0 0 0 1.0385883710170722 -0.0036754833336436893
504 1 Ni 0 0 0 1.1176729995077928 0.11176623943493619
505 1 Ni 0 0 0 1.102256898234649 0.10127760110446019
506 1 Ni 0 0 0 1.0589890056507647 0.05273503763456356
507 1 Ni 0 0 0 1.077641896727813 0.09551685423347392
508 1 Ni 0 0 0 1.079039848551173 0.04040997356361109
509 1 Ni 0 0 0 1.1155961990119638 0.09487775206728832
510 1 Ni 0 0 0 1.1018244303464317 0.08747026006944328
511 1 Ni 0 0 0 1.0619747903866228 0.059386319855829435
512 1 Ni 0 0 0 1.1022795610387048 0.10167953226928952
513 1 Ni 0 0 0 1.0922556231445784 0.026257560786538583
514 1 Ni 0 0 0 1.094998493731274 0.12607413948688617
515 1 Ni 0 0 0 1.0745136461973854 0.07852952937897045
516 1 Ni 0 0 0 1.1090191795619866 0.09956309619651332
517 1 Ni 0 0 0 1.0738771404305598 0.039583503481526665
518 1 Ni 0 0 0 1.0811895731074763 0.07366460962854823
519 1 Ni 0 0 0 1.1540314573790977 0.17008215011986316
520 1 Ni 0 0 0 1.08263760775744 0.04622125556535211
521 1 Ni 0 0 0 1.0931347534024276 0.10203302807334347
522 1 Ni 0 0 0 1.0402038548496333 0.007976989223973135
523 1 Ni 0 0 0 1.1371922047564857 0.11817974314172178
524 1 Ni 0 0 0 1.0966973517223546 0.094962910111246
525 1 Ni 0 0 0 1.0774267176117707 0.05837269874464911
526 1 Ni 0 0 0 1.0666905700041378 0.04954574012190594
527 1 Ni 0 0 0 1.1006627892356402 0.11366156717856592
528 1 Ni 0 0 0 1.0561472617442798 0.05254644004282461
529 1 Ni 0 0 0 1.1162821298938328 0.11708696240404536
530 1 Ni 0 0 0 1.0552195124993615 0.047586273906653355
531 1 Ni 0 0 0 1.091475199134783 0.08879683099673392
532 1 Ni 0 0 0 1.051099458400574 0.044509522159593515
533 1 Ni 0 0 0 1.110508954691399 0.13886423778846427
534 1 Ni 0 0 0 1.0730596489803976 -0.006317389204364143
535 1 Ni 0 0 0 1.1156542733438775 0.0853014168223043
536 1 Ni 0 0 0 1.1424677716578315 0.16969869345875077
537 1 Ni 0 0 0 1.1186313356477575 0.11787998513082862
538 1 Ni 0 0 0 1.0647351044570876 0.09258949038447026
539 1 Ni 0 0 0 1.0566839460342643 0.0030273554942860798
540 1 Ni 0 0 0 1.082042489213488 0.08169450435998693
541 1 Ni 0 0 0 1.0470097852942286 0.013254772027452039
542 1 Ni 0 0 0 1.0724225542902939 0.08506561478542757
543 1 Ni 0 0 0 1.0788536743098414 0.055404322791651237
544 1 Ni 0 0 0 1.0719103723654926 0.06352163496987154
545 1 Ni 0 0 0 1.0836059500020228 0.0908983396623595
546 1 Ni 0 0 0 1.087678443646719 0.09394265294242186
547 1 Ni 0 0 0 1.011102450453997 -0.034187927909095514
548 1 Ni 0 0 0 1.1125171813962076 0.09256573349070742
549 1 Ni 0 0 0 1.1206920995035488 0.1210496872897571
550 1 Ni 0 0 0 1.0877825475399936 0.058053435580331755
551 1 Ni 0 0 0 1.102078864788347 0.12394193735636916
552 1 Ni 0 0 0 1.1115828296455559 0.08196956773466986
553 1 Ni 0 0 0 1.0464021560164989 0.08334575621939612
554 1 Ni 0 0 0 1.0513258528741305 0.009564056062324106
555 1 Ni 0 0 0 1.0810773246571244 0.10352903711963549
556 1 Ni 0 0 0 1.1450561749547894 0.16870340705597092