ITEM: TIMESTEP
0
ITEM: NUMBER OF ATOMS
100
ITEM: BOX BOUNDS pp pp pp
0	17.5532
0	117.998
0	159.277
ITEM: ATOMS id type element xu yu zu Steinhardt[1] Steinhardt[2]
1 1 Ni 0 0 0 0.9262249831453472 1.375554572240524
2 1 Ni 0 0 0 1.0461840547338022 1.5897999966222285
3 1 Ni 0 0 0 1.1857522398425964 1.5795680903712892
4 1 Ni 0 0 0 0.7093659687813851 1.31665549502161
5 1 Ni 0 0 0 0.9814545979062232 1.5351874299292156
6 1 Ni 0 0 0 1.0302977519240746 1.462223862802797
7 1 Ni 0 0 0 0.6893573375606404 1.1985292878562495
8 1 Ni 0 0 0 0.7392381986423038 1.141005240832947
9 1 Ni 0 0 0 0.7619437917860418 1.3371747547076382
10 1 Ni 0 0 0 0.7540731184574998 1.2547128461100896
11 1 Ni 0 0 0 0.8617470194151778 1.355554822516486
12 1 Ni 0 0 0 0.9392284041054468 1.4808197166866943
13 1 Ni 0 0 0 1.0808391877090937 1.528932227868174
14 1 Ni 0 0 0 0.9365628010336374 1.412883847304889
15 1 Ni 0 0 0 0.8927278301301426 1.3244462566145898
16 1 Ni 0 0 0 0.6563683164830589 1.2663702264033292
17 1 Ni 0 0 0 0.9816282156616553 1.3655039787317953
18 1 Ni 0 0 0 1.1374096014318764 1.592603894713211
19 1 Ni 0 0 0 0.8102134854347496 1.2805132919196298
20 1 Ni 0 0 0 0.9202964465431219 1.3886664923669247
21 1 Ni 0 0 0 0.845625792011475 1.3224474754354112
22 1 Ni 0 0 0 0.7407937475118577 1.3410725864688398
23 1 Ni 0 0 0 0.8437804954758716 1.3884628088624162
24 1 Ni 0 0 0 0.8833277040459032 1.4440002106662249
25 1 Ni 0 0 0 0.576491734645799 0.9655574724535634
26 1 Ni 0 0 0 0.8269221270116829 1.2533546060785663
27 1 Ni 0 0 0 0.7707074040781365 1.3427525340830269
28 1 Ni 0 0 0 0.6812727776130597 1.1056846736155401
29 1 Ni 0 0 0 0.6409647582246315 1.2845665621101945
30 1 Ni 0 0 0 1.0499079601002772 1.5615056196345396
31 1 Ni 0 0 0 1.0991703059395324 1.4558924904806445
32 1 Ni 0 0 0 0.7586612395819234 1.1378136312324878
33 1 Ni 0 0 0 0.9113355054954626 1.348891669278836
34 1 Ni 0 0 0 0.828559842862631 1.3596005467088816
35 1 Ni 0 0 0 1.0062310231157423 1.349828765478754
36 1 Ni 0 0 0 0.7645737476939991 1.254375736941141
37 1 Ni 0 0 0 0.8468218850157123 1.278189613496024
38 1 Ni 0 0 0 1.1381281069618465 1.5438298367204104
39 1 Ni 0 0 0 1.0894342064080265 1.644385068505219
40 1 Ni 0 0 0 1.0564465407451353 1.5795051277611416
41 1 Ni 0 0 0 1.0430526328564453 1.4434776864995322
42 1 Ni 0 0 0 0.8011410833745066 1.4190994649697393
43 1 Ni 0 0 0 0.7858212656531285 1.3348582108140536
44 1 Ni 0 0 0 0.898922221360917 1.2673076160796926
45 1 Ni 0 0 0 0.8478929076488273 1.3985680799823499
46 1 Ni 0 0 0 0.6999446695786729 1.2058035660663688
47 1 Ni 0 0 0 0.8245868230562701 1.3957961934389171
48 1 Ni 0 0 0 1.1767897705491401 1.4359589910325363
49 1 Ni 0 0 0 0.7251157640870756 1.1773999520144278
50 1 Ni 0 0 0 0.7519375695936591 1.2263424225870105
51 1 Ni 0 0 0 1.0624504677862086 1.5362668366871806
52 1 Ni 0 0 0 0.5753819310213398 1.2089287599504435
53 1 Ni 0 0 0 0.9504380965025817 1.3011089668398899
54 1 Ni 0 0 0 1.301739494205342 1.6182430780343782
55 1 Ni 0 0 0 0.8988794649522547 1.1491182639208903
56 1 Ni 0 0 0 0.9844148731267528 1.4322619869930875
57 1 Ni 0 0 0 0.7861138785900077 1.3441531582107644
58 1 Ni 0 0 0 1.138534437103503 1.5086808964185985
59 1 Ni 0 0 0 0.9598320973316616 1.3575819378418998
60 1 Ni 0 0 0 0.9189187194650877 1.3211929404652476
61 1 Ni 0 0 0 0.7858986738702488 1.1461241878353439
62 1 Ni 0 0 0 0.653225398037748 1.1063738258963607
63 1 Ni 0 0 0 0.9591629303111286 1.5487153208374325
64 1 Ni 0 0 0 1.0424211946627988 1.3455721923199015
65 1 Ni 0 0 0 0.6165750783982826 1.1386234349770241
66 1 Ni 0 0 0 0.9189387861348076 1.1963470639507137
67 1 Ni 0 0 0 0.9750751126253581 1.4096359679491806
68 1 Ni 0 0 0 0.9888052780004106 1.4318027329549825
69 1 Ni 0 0 0 0.9364197204093557 1.203189443946928
70 1 Ni 0 0 0 0.7302364961190062 1.2247056194707129
71 1 Ni 0 0 0 0.5770074907650343 1.2539153546749038
72 1 Ni 0 0 0 0.8716735255971177 1.3904527936757338
73 1 Ni 0 0 0 0.8886111898102196 1.4582186102388819
74 1 Ni 0 0 0 0.6741457140547266 1.1627608049070417
75 1 Ni 0 0 0 0.9576780820067936 1.4157421354796282
76 1 Ni 0 0 0 1.036759833552896 1.5287977021399213
77 1 Ni 0 0 0 0.6930568833377657 1.1847832254760629
78 1 Ni 0 0 0 0.8877507388784159 1.425504132704217
79 1 Ni 0 0 0 0.8300010740588863 1.3920147444409274
80 1 Ni 0 0 0 0.7437640078158053 1.1803082523671526
81 1 Ni 0 0 0 0.7926193327090533 1.24157541334942
82 1 Ni 0 0 0 0.9545432783983789 1.362391610000259
83 1 Ni 0 0 0 0.951171993377954 1.3001475510462623
84 1 Ni 0 0 0 0.7351650239556351 1.3239220094728763
85 1 Ni 0 0 0 1.0348846021408475 1.4282303345337226
86 1 Ni 0 0 0 1.1467307642685243 1.6189102449043933
87 1 Ni 0 0 0 0.9981176959684428 1.5040044876114613
88 1 Ni 0 0 0 0.9838007214542653 1.453565158008218
89 1 Ni 0 0 0 0.7324887487729518 1.1166065043984053
90 1 Ni 0 0 0 0.7513072216548552 1.3671558379093296
91 1 Ni 0 0 0 0.8949086480194515 1.4026296760031471
92 1 Ni 0 0 0 0.8782112677558153 1.3130639381608886
93 1 Ni 0 0 0 0.8234999455057846 1.2423423256411106
94 1 Ni 0 0 0 1.035770749004477 1.3408234468080873
95 1 Ni 0 0 0 1.0364989271171194 1.4026920160514507
96 1 Ni 0 0 0 0.7945197932128474 1.3087356164687267
97 1 Ni 0 0 0 0.8308434031561496 1.3795941379423844
98 1 Ni 0 0 0 0.9749459610733784 1.550386025557534
99 1 Ni 0 0 0 0.8250017261160143 1.3692600019797307
100 1 Ni 0 0 0 0.6599557908299063 1.2252592814056047
ITEM: TIMESTEP
10
ITEM: NUMBER OF ATOMS
100
ITEM: BOX BOUNDS pp pp pp
0	17.5532
0	117.998
0	159.277
ITEM: ATOMS id type element xu yu zu Steinhardt[1] Steinhardt[2]
1 1 Ni 0 0 0 0.6965575249379563 1.3480634080733342
2 1 Ni 0 0 0 0.9519246893272442 1.443423404130254
3 1 Ni 0 0 0 0.8673043687065867 1.2912601246388287
4 1 Ni 0 0 0 0.949679770224581 1.5369370664805861
5 1 Ni 0 0 0 0.731637594866122 1.3691559550980483
6 1 Ni 0 0 0 1.082291961222545 1.543550658016964
7 1 Ni 0 0 0 1.054236333601236 1.5223665187928928
8 1 Ni 0 0 0 1.056336849579839 1.544784527972139
9 1 Ni 0 0 0 0.6642719674437879 1.1833324308864075
10 1 Ni 0 0 0 0.8097112308522794 1.236302024759691
11 1 Ni 0 0 0 1.0655315261235216 1.4941404406706764
12 1 Ni 0 0 0 1.1374828307321607 1.6377008659101395
13 1 Ni 0 0 0 0.8724493571682981 1.2045996241990302
14 1 Ni 0 0 0 0.6629283337156041 1.1520116711189963
15 1 Ni 0 0 0 0.6126140783545604 1.0631007166574207
16 1 Ni 0 0 0 0.9959480610896755 1.4454375697077568
17 1 Ni 0 0 0 0.8167843815580369 1.3316467692685503
18 1 Ni 0 0 0 1.0916289619842592 1.3743998523318588
19 1 Ni 0 0 0 0.9541148109040243 1.457865710623692
20 1 Ni 0 0 0 0.9773230335633467 1.3606172928732425
21 1 Ni 0 0 0 0.8997768666953213 1.3732568658056714
22 1 Ni 0 0 0 0.8310763840676111 1.275201561135639
23 1 Ni 0 0 0 0.8470536172440818 1.1916979493284232
24 1 Ni 0 0 0 1.2292324433817552 1.5307175675041356
25 1 Ni 0 0 0 1.0056270791054964 1.3291088777073803
26 1 Ni 0 0 0 0.8408022815804955 1.2080125886540243
27 1 Ni 0 0 0 0.7016980133385391 1.3061584248634368
28 1 Ni 0 0 0 0.6822984699285666 1.133997957277285
29 1 Ni 0 0 0 0.7400040790326639 1.1702219779282597
30 1 Ni 0 0 0 0.7618761441942237 1.3585281718200564
31 1 Ni 0 0 0 0.8512053562893382 1.4128941488784532
32 1 Ni 0 0 0 0.7287384155470511 1.1854679937798116
33 1 Ni 0 0 0 1.044949840362697 1.5654021737981625
34 1 Ni 0 0 0 0.6754263069995472 1.0860402676498988
35 1 Ni 0 0 0 0.9164018164428944 1.4392394981393857
36 1 Ni 0 0 0 0.9740615960200726 1.503503068006958
37 1 Ni 0 0 0 0.8353357270875319 1.4385173766935115
38 1 Ni 0 0 0 1.060375904668474 1.4444813314607634
39 1 Ni 0 0 0 0.906427983101762 1.334462061224673
40 1 Ni 0 0 0 0.46622722655559395 1.0299318762442895
41 1 Ni 0 0 0 0.9633926649725099 1.4541986812089447
42 1 Ni 0 0 0 1.0022734209313302 1.3753134020762796
43 1 Ni 0 0 0 1.0202684136905908 1.4145787185497243
44 1 Ni 0 0 0 1.0550087261914909 1.5451291848082602
45 1 Ni 0 0 0 0.8300508643569336 1.3163194791567348
46 1 Ni 0 0 0 0.9430018520589272 1.3345961325287077
47 1 Ni 0 0 0 0.837833949716692 1.2739307393383619
48 1 Ni 0 0 0 0.628071030728648 1.2209907083025462
49 1 Ni 0 0 0 0.8606527702323454 1.2173616816029793
50 1 Ni 0 0 0 0.9220657246508946 1.350514153309335
51 1 Ni 0 0 0 0.8654648006987172 1.3781001673415474
52 1 Ni 0 0 0 0.8434872503260489 1.3098336568698488
53 1 Ni 0 0 0 0.9228655867084645 1.3983774590557638
54 1 Ni 0 0 0 0.7520522888074948 1.2923074890069082
55 1 Ni 0 0 0 1.0925544431106802 1.400358969863037
56 1 Ni 0 0 0 0.8002840814428499 1.3046232453455426
57 1 Ni 0 0 0 0.641852489934709 1.176521007453693
58 1 Ni 0 0 0 0.899599078443421 1.4659922658453575
59 1 Ni 0 0 0 0.8901936564350201 1.2736293994879593
60 1 Ni 0 0 0 0.7859813802962299 1.418238676522411
61 1 Ni 0 0 0 0.776328404084925 1.0184526330070263
62 1 Ni 0 0 0 0.6485092118511393 1.2191607150083965
63 1 Ni 0 0 0 0.9527353323841098 1.4561949472373188
64 1 Ni 0 0 0 0.9384102980248772 1.4182704696981026
65 1 Ni 0 0 0 0.8285917504416306 1.431789698041091
66 1 Ni 0 0 0 1.039391597817559 1.4921774491912219
67 1 Ni 0 0 0 1.0308405977516806 1.5334446290798245
68 1 Ni 0 0 0 0.5913241739588968 1.202593291181909
69 1 Ni 0 0 0 1.118103206066536 1.6850711551054298
70 1 Ni 0 0 0 0.8443692383807823 1.3666053216726022
71 1 Ni 0 0 0 1.102946899425592 1.6304180197535372
72 1 Ni 0 0 0 0.8545480476520222 1.2679180183924947
73 1 Ni 0 0 0 1.0167604014715508 1.5048147117348079
74 1 Ni 0 0 0 0.8989383135467639 1.336925282850564
75 1 Ni 0 0 0 0.7109116704811385 1.2701370966344898
76 1 Ni 0 0 0 0.8829789271724875 1.27995015823174
77 1 Ni 0 0 0 0.7442460265545895 1.3087132217549189
78 1 Ni 0 0 0 0.8167962068268155 1.2084210042868782
79 1 Ni 0 0 0 1.0032275283407002 1.4822265749688697
80 1 Ni 0 0 0 0.9434523570744647 1.480835384022829
81 1 Ni 0 0 0 0.8689012737898921 1.2876071751714733
82 1 Ni 0 0 0 1.1764792993850013 1.4826941262320181
83 1 Ni 0 0 0 1.0663383876414025 1.622782431733106
84 1 Ni 0 0 0 0.9778457106945442 1.3987584650878486
85 1 Ni 0 0 0 1.0142052360040683 1.456493074350115
86 1 Ni 0 0 0 1.0395101434326228 1.4500118914722648
87 1 Ni 0 0 0 0.8273175613469472 1.3046389769058007
88 1 Ni 0 0 0 0.7867775493011706 1.3119789461287945
89 1 Ni 0 0 0 1.043367012414776 1.4950989143258298
90 1 Ni 0 0 0 0.9016369503674055 1.3432284080286727
91 1 Ni 0 0 0 0.9208724894496546 1.3686661793848565
92 1 Ni 0 0 0 0.8618942051239186 1.5919297110220116
93 1 Ni 0 0 0 0.8313587089104116 1.255953540656401
94 1 Ni 0 0 0 0.6365383005912332 1.2220991862974815
95 1 Ni 0 0 0 1.0236641919731457 1.3614426562046418
96 1 Ni 0 0 0 0.9744179270076254 1.3209808986942024
97 1 Ni 0 0 0 1.1507039177357252 1.6242540345819947
98 1 Ni 0 0 0 0.7283165490748 1.3083178097674912
99 1 Ni 0 0 0 1.2105026994027779 1.5350443750965406
100 1 Ni 0 0 0 0.7075126550506654 1.2284784763541219
