ITEM: TIMESTEP
0
ITEM: NUMBER OF ATOMS
291
ITEM: BOX BOUNDS pp pp pp
0	17.5532
0	117.998
0	159.277
ITEM: ATOMS id type element xu yu zu Steinhardt[1] Steinhardt[2]
1 1 Ni 0 0 0 1.1151522296391048 1.4998672204094843
2 1 Ni 0 0 0 0.8668437886592519 1.3245819175763702
3 1 Ni 0 0 0 0.8163794668464428 1.3864312517557327
4 1 Ni 0 0 0 0.6367866128679049 1.2360247298032625
5 1 Ni 0 0 0 0.656658954549233 1.2688953941139105
6 1 Ni 0 0 0 0.8966541207707213 1.3197832864321275
7 1 Ni 0 0 0 0.8762427303000101 1.409126716202627
8 1 Ni 0 0 0 1.142700869934596 1.3975449875064079
9 1 Ni 0 0 0 0.6273536049425105 1.0407574010447846
10 1 Ni 0 0 0 0.9369056601770743 1.3213903287610655
11 1 Ni 0 0 0 0.6925670173644827 1.340632181543442
12 1 Ni 0 0 0 0.8939597275919505 1.3996612141570723
13 1 Ni 0 0 0 0.682812036132669 1.152768120600832
14 1 Ni 0 0 0 0.9613760019697246 1.446775447383411
15 1 Ni 0 0 0 0.7786922748871011 1.3239730663529394
16 1 Ni 0 0 0 1.0495066646950213 1.354436084472328
17 1 Ni 0 0 0 0.9322358914843215 1.5438514797450253
18 1 Ni 0 0 0 0.9890275290857936 1.367269076911859
19 1 Ni 0 0 0 0.8827070150839629 1.304370082198602
20 1 Ni 0 0 0 0.8192281028139528 1.3835125941017798
21 1 Ni 0 0 0 1.0007917331750327 1.348984570528904
22 1 Ni 0 0 0 1.0407227154020173 1.6375126996942797
23 1 Ni 0 0 0 1.2010595838437854 1.5224805082706458
24 1 Ni 0 0 0 0.6026318215765745 1.2372440310192834
25 1 Ni 0 0 0 0.8052767956902586 1.3772704882273052
26 1 Ni 0 0 0 0.8345363207835077 1.3300742136523513
27 1 Ni 0 0 0 0.7670315215567227 1.1897755624633444
28 1 Ni 0 0 0 0.5865824387123579 1.152022902776995
29 1 Ni 0 0 0 0.7513752954354205 1.2700168565725052
30 1 Ni 0 0 0 0.8955493304263996 1.4046989589909902
31 1 Ni 0 0 0 0.943551917272895 1.4125399783345711
32 1 Ni 0 0 0 0.9962798358792284 1.442112239896416
33 1 Ni 0 0 0 0.8506357471491418 1.4449381042432807
34 1 Ni 0 0 0 0.9198510015611685 1.3303447302274976
35 1 Ni 0 0 0 0.6323183915954959 1.2475333227710073
36 1 Ni 0 0 0 0.7159221639081828 1.3632461645507545
37 1 Ni 0 0 0 1.0949064037340557 1.5805766879760803
38 1 Ni 0 0 0 0.8702937905648601 1.2148218888301199
39 1 Ni 0 0 0 0.798127675244977 1.2661543280730232
40 1 Ni 0 0 0 0.6989109362037063 1.3582147183260136
41 1 Ni 0 0 0 0.9284071074481035 1.4440771235833205
42 1 Ni 0 0 0 0.8566876042340833 1.3307725845609608
43 1 Ni 0 0 0 0.8752750120695869 1.3605116382024474
44 1 Ni 0 0 0 0.7475732866515389 1.1980568137867915
45 1 Ni 0 0 0 0.7696315124059412 1.3949030383772898
46 1 Ni 0 0 0 0.9082635780933896 1.3451836459468969
47 1 Ni 0 0 0 1.1347187873596984 1.5471365775704518
48 1 Ni 0 0 0 0.9464135334424758 1.3399940800488799
49 1 Ni 0 0 0 0.791894322125399 1.3119307153951296
50 1 Ni 0 0 0 1.0522599379786681 1.4498082753637689
51 1 Ni 0 0 0 0.9831759044828292 1.452068774494605
52 1 Ni 0 0 0 0.765903519367458 1.3176038239323502
53 1 Ni 0 0 0 0.9011530612377301 1.4056910157799614
54 1 Ni 0 0 0 0.8920179801304302 1.2921880242378592
55 1 Ni 0 0 0 0.6232700191312848 1.2075199756186459
56 1 Ni 0 0 0 0.7699107442945816 1.2180991928005103
57 1 Ni 0 0 0 0.9192443279779935 1.4645656224131105
58 1 Ni 0 0 0 0.8783463289179894 1.2968698391066733
59 1 Ni 0 0 0 1.3199911070610968 1.701043281329911
60 1 Ni 0 0 0 1.00297688904964 1.4153755732214213
61 1 Ni 0 0 0 1.2117533103149278 1.7104890589968913
62 1 Ni 0 0 0 0.9125501124311015 1.4295595907916168
63 1 Ni 0 0 0 0.6671002928116884 1.2568399459564386
64 1 Ni 0 0 0 0.8801745060930389 1.414788842436971
65 1 Ni 0 0 0 0.7500051880552878 1.3733919837529869
66 1 Ni 0 0 0 0.7643594277048034 1.1242127605958845
67 1 Ni 0 0 0 0.7613839029976939 1.3411138458026015
68 1 Ni 0 0 0 1.306783275299074 1.649845254243431
69 1 Ni 0 0 0 0.8655788999521136 1.4149608750411058
70 1 Ni 0 0 0 0.6974908995657576 1.2403731256057808
71 1 Ni 0 0 0 0.6780985438919209 1.0903796702672763
72 1 Ni 0 0 0 0.9811980351691155 1.3882303711581299
73 1 Ni 0 0 0 0.6610524937304764 1.319980113579474
74 1 Ni 0 0 0 0.9601992800113011 1.4325912955501223
75 1 Ni 0 0 0 0.9283861262378353 1.201419261868738
76 1 Ni 0 0 0 0.9684743840566091 1.284638057490384
77 1 Ni 0 0 0 0.7787853042617008 1.2959628550477638
78 1 Ni 0 0 0 0.8117040356440668 1.330050880350022
79 1 Ni 0 0 0 0.9092908626964488 1.3020094791003645
80 1 Ni 0 0 0 1.0889847906656822 1.6370013979482454
81 1 Ni 0 0 0 0.5903149515199863 1.1731685218989827
82 1 Ni 0 0 0 0.7518172914352416 1.1636559741740025
83 1 Ni 0 0 0 0.7624652579691744 1.201101184537479
84 1 Ni 0 0 0 0.7450048467235324 1.2283643198976266
85 1 Ni 0 0 0 0.8177050751831657 1.3964933845026153
86 1 Ni 0 0 0 1.012197362867155 1.298132004179396
87 1 Ni 0 0 0 0.7210287405791787 1.1652825569705405
88 1 Ni 0 0 0 1.0750859100029153 1.5124976347616401
89 1 Ni 0 0 0 1.0124334146678682 1.3649327569087972
90 1 Ni 0 0 0 0.9094500755141397 1.324560537638851
91 1 Ni 0 0 0 1.1686625771488703 1.3258509785804955
92 1 Ni 0 0 0 0.6048835672373984 1.191698841700584
93 1 Ni 0 0 0 0.7655127666072156 1.416090396735133
94 1 Ni 0 0 0 1.0078308090284507 1.4184732310979429
95 1 Ni 0 0 0 0.752553020125079 1.3224623820998056
96 1 Ni 0 0 0 0.7149971508142632 1.1941503136756568
97 1 Ni 0 0 0 1.0388073717053088 1.517718861650774
98 1 Ni 0 0 0 0.6398606942406404 1.0717024969084221
99 1 Ni 0 0 0 1.159518034882499 1.5614290520117082
100 1 Ni 0 0 0 0.9643631297295978 1.4285937060095064
101 1 Ni 0 0 0 0.9327477286402277 1.308427097606159
102 1 Ni 0 0 0 0.9603186690651775 1.5182112824717957
103 1 Ni 0 0 0 0.9242471260712427 1.460023082819702
104 1 Ni 0 0 0 0.7587321135531522 1.1706539622005996
105 1 Ni 0 0 0 0.9543108042552663 1.5001465803612761
106 1 Ni 0 0 0 1.1769144825617455 1.5724662995751937
107 1 Ni 0 0 0 0.9567656515518903 1.348702145274964
108 1 Ni 0 0 0 0.8911566577973007 1.3484625249800015
109 1 Ni 0 0 0 0.7786250409386825 1.2854893034928239
110 1 Ni 0 0 0 0.8152699835271154 1.2683674544690426
111 1 Ni 0 0 0 0.753415539415022 1.1851117184594357
112 1 Ni 0 0 0 1.0112753068500415 1.4662610778689222
113 1 Ni 0 0 0 0.7501085383562874 1.2310845006241866
114 1 Ni 0 0 0 0.7580692652990084 1.2932572659666632
115 1 Ni 0 0 0 0.8507083879750715 1.275592908069859
116 1 Ni 0 0 0 0.7862269901333606 1.1949313693335188
117 1 Ni 0 0 0 0.8505463931896249 1.3513801782354231
118 1 Ni 0 0 0 0.7418878512023623 1.2591746895630358
119 1 Ni 0 0 0 1.1078791284371605 1.3710052993260409
120 1 Ni 0 0 0 0.8665453056923741 1.4772526853199137
121 1 Ni 0 0 0 1.1440913226832614 1.4979828913885844
122 1 Ni 0 0 0 0.9982327056902547 1.463387349935209
123 1 Ni 0 0 0 0.7401063321084365 1.2703815165450745
124 1 Ni 0 0 0 0.8242665564156815 1.3111354752898814
125 1 Ni 0 0 0 0.7811733445367676 1.0922728317018295
126 1 Ni 0 0 0 1.0511126932007853 1.3975288337239749
127 1 Ni 0 0 0 1.015998648283736 1.5143620215703693
128 1 Ni 0 0 0 0.988991229061193 1.3749182028531095
129 1 Ni 0 0 0 1.012231174932627 1.4501539572697248
130 1 Ni 0 0 0 0.9249468540117407 1.431670887062037
131 1 Ni 0 0 0 1.083930941602087 1.5674483235346448
132 1 Ni 0 0 0 1.131517278321969 1.4702947719128343
133 1 Ni 0 0 0 0.8998902301935483 1.3267611943305049
134 1 Ni 0 0 0 0.8696630442520422 1.3211833974974923
135 1 Ni 0 0 0 0.9568297915425164 1.3894937813850339
136 1 Ni 0 0 0 0.9864377952374443 1.3172153234071955
137 1 Ni 0 0 0 0.6926449838874573 1.1979085160367258
138 1 Ni 0 0 0 0.7899864778148807 1.2769002095430675
139 1 Ni 0 0 0 0.911611110540651 1.2759525684146114
140 1 Ni 0 0 0 0.7683981658949773 1.146991185933704
141 1 Ni 0 0 0 1.306848003822212 1.6681484464618554
142 1 Ni 0 0 0 1.159788256246733 1.6143510118544113
143 1 Ni 0 0 0 0.9075911902304612 1.5176086780608187
144 1 Ni 0 0 0 0.7879462304221198 1.2421737800762676
145 1 Ni 0 0 0 1.128915339720828 1.4643597666808503
146 1 Ni 0 0 0 0.652328281430569 1.160103368793121
147 1 Ni 0 0 0 0.8478888118328585 1.264649208586968
148 1 Ni 0 0 0 1.132337643207485 1.4532656411430935
149 1 Ni 0 0 0 0.9832749126373699 1.3230492876495736
150 1 Ni 0 0 0 1.2034006027464519 1.459773780435993
151 1 Ni 0 0 0 0.5252815773332906 0.9336926890746894
152 1 Ni 0 0 0 1.0221087045966963 1.3431886105283988
153 1 Ni 0 0 0 0.6473024971230761 0.99620586836765
154 1 Ni 0 0 0 0.8036808560967159 1.2982546923572933
155 1 Ni 0 0 0 0.7251602348931121 1.3624833710188156
156 1 Ni 0 0 0 0.9205946983759303 1.3161137184150689
157 1 Ni 0 0 0 0.7968486889467787 1.3973847215186128
158 1 Ni 0 0 0 0.9860770416418716 1.3772348259749858
159 1 Ni 0 0 0 1.2923674372311127 1.5527932332309482
160 1 Ni 0 0 0 0.9906003779158947 1.4079343455566937
161 1 Ni 0 0 0 0.7695882970476956 1.2848830939584335
162 1 Ni 0 0 0 0.8745236485599502 1.3376403591884451
163 1 Ni 0 0 0 0.8838827593724177 1.3776427090196757
164 1 Ni 0 0 0 0.8372719823968037 1.2468672101725455
165 1 Ni 0 0 0 1.0124596460272428 1.4058773428409135
166 1 Ni 0 0 0 1.3116319442249065 1.5757318616170708
167 1 Ni 0 0 0 0.7282761573990064 1.360447280441242
168 1 Ni 0 0 0 1.0205415470083044 1.3531688297922673
169 1 Ni 0 0 0 0.6729248999493325 1.3130813656115539
170 1 Ni 0 0 0 0.8603252723632066 1.2640626766763399
171 1 Ni 0 0 0 0.8027201128689792 1.3675524544352056
172 1 Ni 0 0 0 0.9441284498120072 1.2597830383849058
173 1 Ni 0 0 0 0.7486227020711567 1.3196253275365606
174 1 Ni 0 0 0 0.7917551112804622 1.3451375786111954
175 1 Ni 0 0 0 0.9449970602251992 1.3368838924267443
176 1 Ni 0 0 0 0.7309144892121288 1.3049787764825085
177 2 Ag 0 0 0 1.210752526136127 0.9877052861897445
178 2 Ag 0 0 0 1.0809361983355645 0.9278347152366808
179 2 Ag 0 0 0 1.3873836759194509 1.032122239626741
180 2 Ag 0 0 0 1.2077861361718762 0.9829697250180474
181 2 Ag 0 0 0 1.3565618429980792 0.9987140133394907
182 2 Ag 0 0 0 1.1368373986448104 0.7579371260118102
183 2 Ag 0 0 0 1.4988967095829895 1.2855362511380024
184 2 Ag 0 0 0 1.3986989939509413 1.029575502506042
185 2 Ag 0 0 0 1.4789870927119118 1.1049491705688708
186 2 Ag 0 0 0 1.1402439688756507 0.9245398235278289
187 2 Ag 0 0 0 1.0424385419183357 0.7942116582967341
188 2 Ag 0 0 0 1.0046627659330074 0.9424944076097576
189 2 Ag 0 0 0 1.3141493031700922 1.092865562028261
190 2 Ag 0 0 0 1.2410072448655567 0.9398105319055741
191 2 Ag 0 0 0 1.2085909874937104 0.8759082931375455
192 2 Ag 0 0 0 1.2992704650501479 1.212393865776921
193 2 Ag 0 0 0 1.5236735033780249 1.1255298412929917
194 2 Ag 0 0 0 1.3305863612742328 1.1854105157585473
195 2 Ag 0 0 0 1.4671430289374239 0.9339797629278035
196 2 Ag 0 0 0 1.4730688811272974 1.2107823091789889
197 2 Ag 0 0 0 1.3492275565958574 1.0189163910434424
198 2 Ag 0 0 0 1.0366386702864714 1.150183302445428
199 2 Ag 0 0 0 1.3229846703348416 0.9793790899781092
200 2 Ag 0 0 0 1.2609374307289722 1.0274026413747377
201 2 Ag 0 0 0 1.3968913301909076 1.1264523600153762
202 2 Ag 0 0 0 1.2800914916010808 1.0921698154565282
203 2 Ag 0 0 0 1.3656250913088872 0.9668667227721327
204 2 Ag 0 0 0 1.3533316936934936 1.0727770702295973
205 2 Ag 0 0 0 1.168308955600616 0.9780499209512864
206 2 Ag 0 0 0 1.2348003669876781 0.9133042035180595
207 2 Ag 0 0 0 1.4012665239481996 0.9327527240037354
208 2 Ag 0 0 0 1.0221421515774698 0.9107439604461653
209 2 Ag 0 0 0 1.1862651866471876 1.1696507396943014
210 2 Ag 0 0 0 1.0552072137406692 0.929276614647975
211 2 Ag 0 0 0 1.3273998785667183 1.0860127720941122
212 2 Ag 0 0 0 1.3963585057673364 1.140734873906748
213 2 Ag 0 0 0 1.2721995665820622 1.0341726668022588
214 2 Ag 0 0 0 1.1144823780867117 1.0074755281762997
215 2 Ag 0 0 0 1.0358531347912359 0.8482503982663158
216 2 Ag 0 0 0 1.3388411559053826 0.9725542277669583
217 2 Ag 0 0 0 1.5181533425487208 1.2559274871205195
218 2 Ag 0 0 0 1.1014097864752794 1.0225372495056977
219 2 Ag 0 0 0 1.4227117771844626 1.1346753754897116
220 2 Ag 0 0 0 1.2771148030980113 1.0466016490753227
221 2 Ag 0 0 0 1.296040264731624 1.0092194231977658
222 2 Ag 0 0 0 1.0279715773850278 0.9167445020617748
223 2 Ag 0 0 0 1.2762881955219907 1.014303003664822
224 2 Ag 0 0 0 1.0257268100892696 0.9539082728212962
225 2 Ag 0 0 0 1.1472343775634328 1.0388237898736756
226 2 Ag 0 0 0 1.183355382301962 1.2102605325599103
227 2 Ag 0 0 0 1.2423822603081307 0.9989354933484974
228 2 Ag 0 0 0 1.3544006700371454 0.8551932774215358
229 2 Ag 0 0 0 1.1030032571798498 0.944678573737508
230 2 Ag 0 0 0 1.4540840592883826 1.1465270496780213
231 2 Ag 0 0 0 1.1390653147444656 1.052194227399192
232 2 Ag 0 0 0 1.2538352395110162 1.0121298386291646
233 2 Ag 0 0 0 1.5026995727023071 1.0042824123281584
234 2 Ag 0 0 0 1.2417724887054242 0.955639704173065
235 2 Ag 0 0 0 1.444994536329122 1.1529565689843997
236 2 Ag 0 0 0 1.319643336758718 1.1355409266293803
237 2 Ag 0 0 0 0.8220402448544357 0.8185394300674824
238 2 Ag 0 0 0 0.9813901643235059 0.9918269056518947
239 2 Ag 0 0 0 1.2435153288171463 0.9327097312779162
240 2 Ag 0 0 0 1.2103330487333421 0.9261552087438002
241 2 Ag 0 0 0 1.0904835009502367 1.031939865656527
242 2 Ag 0 0 0 1.2121757344862243 0.948611699716435
243 2 Ag 0 0 0 1.0526028411389237 0.9418911682762643
244 2 Ag 0 0 0 1.264894133968589 0.857797129016204
245 2 Ag 0 0 0 1.2046999142738655 0.9523309102752963
246 2 Ag 0 0 0 1.3096066230210803 1.114602145567802
247 2 Ag 0 0 0 1.4222334425772587 0.9835150564903421
248 2 Ag 0 0 0 1.1264201689800895 1.031921786682476
249 2 Ag 0 0 0 1.392945248658327 1.141479656169616
250 2 Ag 0 0 0 1.2444456999217848 1.1388889838153495
251 2 Ag 0 0 0 1.3429427986795612 1.073121198234454
252 2 Ag 0 0 0 1.062891956414446 0.8233521385679362
253 2 Ag 0 0 0 1.2572735376842472 1.0363408603675432
254 2 Ag 0 0 0 1.1368103768504938 1.0926578334926047
255 2 Ag 0 0 0 1.2551355558609414 0.9536619811686006
256 2 Ag 0 0 0 1.2819674409169906 1.1160012462696507
257 2 Ag 0 0 0 1.371628973356681 1.1773712522932112
258 2 Ag 0 0 0 1.4128689804314125 1.1984775020219085
259 2 Ag 0 0 0 1.4853430519616821 1.2117231197915912
260 2 Ag 0 0 0 1.1844637164537124 0.8586375668097854
261 2 Ag 0 0 0 1.2150673795390483 1.0684646049585313
262 2 Ag 0 0 0 1.3743525359144197 1.0611066786582408
263 2 Ag 0 0 0 1.0128111022076267 0.9668632083999879
264 2 Ag 0 0 0 1.058731221574618 0.9210519449013875
265 2 Ag 0 0 0 1.2066458501416357 1.0307453396666286
266 2 Ag 0 0 0 1.1353222055185364 1.0083468277759104
267 2 Ag 0 0 0 1.3872543684693146 1.1165359828356112
268 2 Ag 0 0 0 1.3555885241121441 1.1832180968088402
269 2 Ag 0 0 0 1.3486464565467151 1.0648229084194356
270 2 Ag 0 0 0 1.0612900311068973 0.9755508863331775
271 2 Ag 0 0 0 1.258447729219177 0.966500747199545
272 2 Ag 0 0 0 1.283073151723141 1.2087993502717926
273 2 Ag 0 0 0 1.202162219988186 1.085396753100242
274 2 Ag 0 0 0 1.2549216304570687 0.8783625735489073
275 2 Ag 0 0 0 1.4578997396598479 1.18243903706596
276 2 Ag 0 0 0 1.161971571888399 0.8925077300349273
277 2 Ag 0 0 0 0.9847058516546616 0.9327768981933843
278 2 Ag 0 0 0 1.2885283213740344 1.0872116146582604
279 2 Ag 0 0 0 1.0697331249350814 1.0669597107113378
280 2 Ag 0 0 0 1.446304391692459 1.1699636567388068
281 2 Ag 0 0 0 1.2475116000319073 0.9389838419142199
282 2 Ag 0 0 0 1.3378617049835615 1.1105960745765786
283 2 Ag 0 0 0 1.2145011526421037 1.1388627072397524
284 2 Ag 0 0 0 1.362451504942339 1.1013305670931932
285 2 Ag 0 0 0 1.2484031883771007 1.0269467063440962
286 2 Ag 0 0 0 1.386705914961552 1.190297616456179
287 2 Ag 0 0 0 1.3513363846168178 1.1887128345713274
288 2 Ag 0 0 0 1.3461676140568237 1.1907572924198473
289 2 Ag 0 0 0 1.179309565291226 1.1335499084804361
290 2 Ag 0 0 0 1.2993590797739298 1.2799689043681004
291 2 Ag 0 0 0 1.4622551225504066 1.0790331523009868
