 # Fichier généré avec Atomsk par valentin.delbecq le 2023-02-27 16:46:16
  
        7560  atoms
           3  atom types
 
      0.000000000000      31.038900000000  xlo xhi
      0.000000000000     900.000000000000  ylo yhi
      0.000000000000      30.047100000000  zlo zhi
     15.310100000000      -1.524720000000       0.535877000000  xy xz yz
 
Masses
 
            1   24.30500000             # Mg
            2   15.99900000             # O
            3   28.08500000             # Si
 
Atoms # atomic
 
         1    1       22.746922094240     164.513693958506      26.651116663800
         2    2       21.520257558140     155.924328111396       5.031326800800
         3    2       12.262410410480     205.782236541332      10.231518303600
         4    1       13.596764092300     201.418941144135       6.164312800500
         5    1       20.746137294244     150.399806470194      15.417407386800
         6    1       -0.617282431400     233.434421343510      12.530542113000
         7    2       10.018305948440     165.385240179931      15.267021651300
         8    2       -8.537010655930     206.318161720449      23.984706962700
         9    1       17.278945019580     166.808394314762      10.693943172600
        10    2        8.635743917840     161.658831472806       7.411958533800
        11    1       24.299352009696     186.093085619334       0.596756438970
        12    2       -0.569448327680     195.631928948623      23.283467742900
        13    1       -0.004028065880     160.533065814979      16.493664461700
        14    1       -3.296787360450     173.439201345209      13.356446750700
        15    2        5.818946042820     208.619683236313      17.152957929900
        16    2       11.381433503000     222.006421562030      21.693705729000
        17    1        8.228928336420     235.091281506318       1.025627711400
        18    1       13.349950068100     166.873107073790       4.202687877000
        19    1       -4.574542913020     225.881499412547      17.088116288100
        20    3       27.019754428180     151.925422814307      12.556412666100
        21    2       -5.980459884708     197.965671232468       2.593903044090
        22    2      -11.498716667470     225.524813974238      29.569170827400
        23    2       13.099902738160     190.279405909899       7.051663757700
        24    3       21.902396651448     150.558713035982      12.523270714800
        25    3        9.010470132316     205.077994321982       2.592605009370
        26    1       21.398695525212     190.549685892038       2.047346295090
        27    1       -5.833754816720     200.417577330327      14.496253442100
        28    3        9.465092888300     176.372193794635      16.383331510500
        29    2        2.653175128980     199.942531793512       8.619190917600
        30    1       12.520503602540     236.460926970236      14.286434542800
        31    1       15.571673998500     198.360847824245       3.472994053500
        32    1        6.932437774480     160.192907428382      25.208495298600
        33    2       17.630164312780     182.778980316212      23.579642007600
        34    1       -5.555157617660     230.795855461466       9.196155331800
        35    1        7.604211739420     227.645071607903      21.836399406900
        36    3       19.050829008032     216.068866513951       1.989325344990
        37    2        9.856067779082     196.303446730484       0.083593435968
        38    1       12.520439723660     217.377988658799       6.429688787700
        39    1      -10.292487055200     240.864974581185       6.736710055500
        40    1       15.729209674120     175.455692031558       9.250119923400
        41    1        1.687585487560     191.073998633774      29.988868720200
        42    2        1.774610058980     204.771832615067      25.626300224100
        43    1       11.399847693720     212.660073853013      19.277287899900
        44    2       -5.519196674500     221.983754210590      29.904977217000
        45    2        3.694873232780     197.169263784977      20.885769257100
        46    2       15.403829930880     208.419994076952      15.792034629600
        47    3        4.654055344820     181.536270700508      17.163023708400
        48    1        4.489778908340     232.799744473986       7.211844847800
        49    2       12.714004847480     151.914211467159      27.921177533700
        50    1       24.256397592540     163.958367245091      14.788671819300
        51    3       23.001483476460     193.022702093354      14.356564474200
        52    2        2.944014533700     210.754653314015      27.366748444500
        53    1       -5.493276575280     232.595394332578      21.264753329400
        54    3       10.581958388945     173.541720442289       0.124212007161
        55    2       11.167498165520     161.647001717188       8.564745572400
        56    2       -5.941324445920     239.706963355552      25.389078369600
        57    2       17.953261424360     211.514620493679       6.635210951700
        58    3       -0.231101566420     233.909206197177      20.080506977100
        59    1       18.509374416411     184.613397037668       0.001661328197
        60    2        5.985981455800     205.367267138800      13.653402240000
        61    2        0.308802654400     180.958705886500      18.025255290000
        62    3       -6.765329876572     197.675284134652       1.268952131910
        63    1       -0.054630930340     223.864498059139      29.560547309700
        64    3       -6.353528357060     238.848393704851      24.075629487300
        65    2        7.610525594540     151.964717886942      27.660939600600
        66    2       12.637556892340     218.798904482391       8.920473189300
        67    1        3.800326758880     189.001023090522       3.467014680600
        68    1        5.362996579620     234.243935345413      12.384483159900
        69    2      -11.754841043760     241.848435628086       3.813517837800
        70    2       -0.733504518440     184.908034554834      11.990054878200
        71    2        5.462169831700     241.790195701055      11.289146176500
        72    1        2.634611911660     171.473684660704      21.295942219200
        73    1       -0.751560999420     174.332645136977      23.932545197100
        74    2        7.107679233320     189.058485299973      13.492620207900
        75    2       10.372860808820     192.399156840138      24.067546817400
        76    3        0.896157588600     174.607030050430      21.236989809000
        77    2       17.509137576860     202.361883338234       7.981771738200
        78    2        5.429056148640     170.211611664606       7.916749813800
        79    1        4.989689459960     172.250817637019       7.146612593700
        80    1       -6.046936380440     202.825516942984      22.979781703200
        81    2        6.422761632040     183.881052258676      14.626567714800
        82    2       14.105124724800     241.597089759810       3.381200163000
        83    2        8.886922612460     244.642169810764      14.396527117200
        84    1        2.249790937436     181.219528526462       0.785166779520
        85    2       24.642188741876     182.899997596151       2.502373568070
        86    2       11.165061116120     173.937277015508       8.797911068400
        87    1       10.523290433760     223.684352924559      22.759686695700
        88    2       -3.106837323900     182.492849429675      21.512972422500
        89    1        6.802942140860     150.663130509186      29.198209330800
        90    3       23.766192446020     154.668237708238      15.419991437400
        91    1      -10.396150956320     209.328713522016      22.006736416800
        92    2       20.211061474860     207.533942687759      24.466361975700
        93    2        3.652908177880     244.580255541687      14.889269510100
        94    1        9.526346841940     202.772924411811      15.466534395300
        95    2      -11.882358219376     241.839692583469       0.762544317930
        96    2       -7.279875759880     210.055310378708      19.632895328400
        97    1       -0.134259303482     236.522301394225       0.295413171657
        98    1       12.245283507000     177.862558425015      19.548493024500
        99    1       -1.482314005920     187.595551151367       6.170802974100
       100    1       15.517937783740     167.004680349866      18.426624451800
       101    2       17.656013919780     179.025302985857      14.961683021100
       102    2        9.049215358132     203.477793705931       2.852878998990
       103    1       -5.695121310200     200.298731525440      28.404124572000
       104    3       12.513749306480     179.533366426052       8.295283179600
       105    3       -4.346822301874     171.331819071351      18.093251877300
       106    3       -0.756801924160     207.322599614946       6.342882715800
       107    3        6.333898805500     223.874145727670      12.899520501000
       108    2        3.335261246260     244.833063371629      17.444655176700
       109    2       19.777641810660     172.307777362529       5.074264106700
       110    2       -0.505230353908     194.020102406000       1.425551607690
       111    2       17.320242642380     224.849567372447      19.350662918100
       112    2       11.510544476580     216.857631401292      27.144429951600
       113    3        9.519072038560     165.742119366154      21.129180814200
       114    3       -4.075569357080     212.126784399248       5.114737550400
       115    2       10.416324168800     187.262213485630       3.803662389000
       116    2       -0.176027185000     202.000609524555      25.943116846500
       117    2       18.552774130920     201.622198430748      29.143403420400
       118    2       21.297271243620     171.911163337873      16.698645777900
       119    3        7.935160477320     240.737144047263      21.297955374900
       120    2       -9.205845870160     217.232294774964      16.517852377200
       121    1       -3.575436774380     194.593968223703       4.330958946900
       122    3       13.714924451620     200.039625623593      16.366925793900
       123    3       18.180180713220     153.614394492084      16.013061097200
       124    2       12.277555914100     151.702721865830      24.803580579000
       125    1       -5.369890963740     235.870691291764      10.881016417200
       126    3        2.581755312680     218.973027938272      25.021301865600
       127    2       12.660609224920     189.622829129053      28.126759791900
       128    2        4.358101362104     226.023348224206       0.918218343030
       129    2       -7.748845994760     219.841563449311      19.934538165300
       130    2        8.780282487120     244.764152468133      16.950440475900
       131    3       -1.181307260040     169.388345499994      26.234784046200
       132    3       -0.193266247606     179.192682012039       0.223286910933
       133    2       25.979553282620     162.754782309563      26.835635904900
       134    2        4.064328366360     209.803371006064      13.756523887200
       135    2       26.987699516060     153.515053344490      12.550974141000
       136    2       -7.618016315880     212.560116844193      13.704752733900
       137    2       10.248393919140     158.714203698823      12.994739760900
       138    2        7.284217783440     152.279430651346      24.485321695800
       139    1       -5.973412635680     228.497260399398       7.631182175400
       140    3       23.797728332800     184.378620509500      18.980753070000
       141    2        5.475822234120     242.053159532878      13.846124339400
       142    2       -4.428671284640     200.345184020589      26.701565744700
       143    2       21.889845569820     153.614622770377      12.525464153100
       144    2       17.877661346300     209.057307260245       6.135167113500
       145    2       16.486536334540     153.880307523278      27.640147007400
       146    1       -6.991567418910     197.831627416716      27.478313326800
       147    2       13.561731748620     241.806931393993       0.538113513900
       148    3        5.390182179800     238.913406365610      21.860166663000
       149    2       -3.736286907680     203.815485360198      20.341105475400
       150    3        1.029274955940     198.121891449051      18.408746427300
       151    3       -4.095642617440     215.194858893719      24.228388943700
       152    2       18.139727607560     194.086980029454      18.932737804200
       153    2       10.326757197620     223.921879109528       1.390099034400
       154    1        7.248405854980     192.056578057607      11.378566346100
       155    3        8.564765424892     197.185714751768       0.331161107940
       156    2       19.604070449200     204.471718974895      17.632689928500
       157    3        2.022135841200     170.827479586690       6.657535947000
       158    2       11.526061569160     239.661270516984      16.537683463200
       159    2       23.806675172660     151.463763750346      15.593783863800
       160    2       11.381084104740     154.538902589377      27.872921891100
       161    1        1.462082785140     160.430573296296      22.104089020800
       162    3       -5.855881635980     238.611280935213       7.132250079900
       163    2       11.900446760025     229.343168076651       0.193500619761
       164    2        7.556420392320     164.030267292658       3.568213313400
       165    2       10.848048305880     241.968538222967      13.971030134100
       166    2       18.150256561380     151.996357590440      16.001282634000
       167    2       15.417238438100     152.062358084988      23.561854124400
       168    1        6.201652988700     197.465878535490       7.516883007000
       169    2        0.578861692300     167.457586864920      28.585609056000
       170    2       -8.087774437100     244.308649118125       3.870817657500
       171    2       16.739150237960     226.040627505284      28.421311513200
       172    3       -4.672472950840     214.726425326429      12.925571336700
       173    2       11.814332180220     197.299280202363      17.268639264900
       174    2       23.406257820588     151.115217687730      12.572968618200
       175    2       15.122766102660     218.163836660334       8.663840908200
       176    2       10.184639695640     151.856545109830      23.519367525000
       177    2        5.565352279460     240.158204074609      18.290180570700
       178    2      -13.365084992760     244.372246587633       3.654598725900
       179    1       22.516448514344     174.596155853327       2.059196871330
       180    2       -6.572950035490     188.271144093484      27.171352153200
       181    2       27.126697535720     166.232385829798      22.041771335400
       182    3        8.252595579420     198.874526205453      15.609137931900
       183    2        4.659770023800     164.335498347665      12.020192119500
       184    2        0.415316463560     208.154145921559      19.250185415700
       185    2        9.547671496040     216.814963846316      21.757345486800
       186    2       18.040023762320     152.094098061957      13.157655137100
       187    1        1.371730503280     152.924177309384      29.210949301200
       188    1       12.336785299220     208.743021491633      23.822212245900
       189    2       22.654566319680     169.059266010287      22.022451050100
       190    2        0.295731098240     229.598012710626      10.550678599800
       191    3       -5.699949492752     188.740454410477       0.144324634488
       192    3        3.659404066220     164.438701871508      15.889026668400
       193    2       -7.351859662640     212.236126284049      21.322533902700
       194    3        8.653607378520     226.313354119291       1.177140213150
       195    3        3.407058008460     229.192281310649      10.547643842700
       196    1        4.852939702840     196.883637534911      19.345615005300
       197    2       10.850570816880     172.979319369027       5.779589732100
       198    2       13.338104569540     154.496842625026      26.421556819800
       199    2        5.887203581440     181.865341406966      23.699890501800
       200    2        4.077854906240     222.337786300161      20.987689020300
       201    2      -10.564858289100     243.022721205820      29.574158646000
       202    1        7.452413608740     202.057524548616      24.350410216800
       203    3       14.839112059648     180.856253297106       0.725159716110
       204    2       12.523788838440     237.197224783076      23.754876694800
       205    2       24.960637116880     178.185844666567      29.162843894100
       206    2        4.437196380980     193.409933669587      16.616977760100
       207    2       11.300562247040     191.006447475346       9.395668075800
       208    1       20.256635655300     203.880970260900      20.921795730000
       209    2       12.597670801880     182.905491229867      12.549802304100
       210    1        9.190850953200     178.596267926925      18.323472757500
       211    2        9.074454824480     225.841975934317       4.811171699100
       212    2       27.298087129620     153.516600480263      15.658114704900
       213    2        5.668384885940     179.273454796026      20.898899839800
       214    2       21.228170109460     156.243815572247       7.626885440100
       215    2       13.999190512980     206.638998732587      20.877656540100
       216    3       26.774435933520     163.124399599298      16.756486445400
       217    2      -15.554022872470     242.101201606887      29.456103590100
       218    2       11.213889531820     189.761358416873       3.525997137900
       219    1       15.967995556812     175.730702945606       0.862814495340
       220    1       16.565678387000     219.855040131650      24.525945375000
       221    3      -11.755049352440     240.222528468034       9.436051378200
       222    2       15.402122207109     199.170612360547       0.040945483641
       223    2        7.051894933500     173.676017375320       4.343608776000
       224    2        8.504189550640     154.149371607861      26.369124630300
       225    2       -3.004821604480     224.893670240883      20.794966920900
       226    1        2.592630881544     152.325339269300       2.130784087080
       227    2        9.040615443360     214.521678972794      15.063272266200
       228    2        6.401944280900     240.215988787190      21.401647917000
       229    1       -2.864967142660     205.820019880196      17.798339590800
       230    3       -0.234659692120     164.158793846427      25.989269192100
       231    2        8.649500255240     208.858639302111      10.842285705300
       232    2       13.067474619240     236.660443440581      10.130469906300
       233    2       10.989074603820     194.827644469308      24.145969748400
       234    2      -13.490355916767     228.208924017687      16.385615090100
       235    2      -11.285313422490     225.400561384766      22.816505761800
       236    3      -10.419601891240     236.472516955474      10.773748270200
       237    2       -5.567328715700     187.183060262939      19.128194189700
       238    2       12.252461934080     237.568049609047      18.280986158100
       239    2       13.097989446920     201.199209244228       4.295653604400
       240    1       21.397636617160     194.842780760964      17.076728437200
       241    2      -10.066729327520     213.553506046596      24.024098710800
       242    3       25.202956004200     173.441307630575      23.685377752500
       243    1        6.631558843660     216.369237527389      23.390375324700
       244    2       19.588234784360     159.035860919423       8.039372028900
       245    2        6.716213578540     237.394834922381      18.495582546300
       246    2        8.451272258840     154.151828751208      28.943890676400
       247    2       -5.580246398080     239.707013076358       5.848788203400
       248    1       -1.841910740200     195.583790683735      12.714580600500
       249    2        3.285638065040     165.806050009796      16.410163570800
       250    1       15.115746911268     189.107378277579       2.562509834010
       251    2       14.231418259180     225.719935398402      22.439955504600
       252    2       14.530341611020     239.589380086743      20.349668898900
       253    2       -0.544789384080     181.091625329703       3.760064046900
       254    2        8.239252849320     170.293793367653       9.599717931900
       255    2       15.448364586176     223.406227348241       2.032737395070
       256    1       18.743062473383     212.924794897602       0.246835123674
       257    2       11.605833346688     169.504435677442       0.772273568910
       258    1        7.097577144940     204.120130385531      21.817289451300
       259    2      -13.608767474000     239.279942690099       6.486778277700
       260    2       -6.136235145500     220.723432787610      15.225766983000
       261    1        3.145217138480     189.170359968262      11.327936982600
       262    2        9.899169428400     180.669942579505      14.685970831500
       263    2       14.563167965080     230.253908522682      25.223518848600
       264    2      -11.129338444748     244.611589827442       2.583551818140
       265    1        8.324338595960     150.270953579313       2.240122479270
       266    2       -6.319363441056     184.680676084941      17.686714614300
       267    2       -6.743822985720     214.291985993612       7.696744947600
       268    2       13.733625907240     154.939687526827      28.887011516100
       269    2      -11.349460594920     221.525871238322      15.936561180600
       270    2       22.307885866740     153.908126140679      15.403555673700
       271    1       -3.006505793240     205.675371001944      14.857449631200
       272    2       11.063827462000     211.752157501655      27.550636696500
       273    1       26.865697004760     164.406532856294      11.358464836200
       274    2       16.529456999988     225.973599852062       0.834170594910
       275    2       21.915561415180     167.283198292582      19.144990518600
       276    2        8.529615789360     240.234219427874      19.938113770200
       277    1      -11.721368842400     232.119107737829      21.741390476700
       278    2       14.732320393692     243.930396846075       2.344241690190
       279    1        5.636904540760     224.700588017834       5.656126198200
       280    2        0.084253971060     174.654980909399      25.822087127700
       281    2       24.880672997360     181.467935353249      12.849251702700
       282    2       22.986570672240     163.456357025796      16.758709930800
       283    1       15.128879988260     222.588652090534      27.869947228200
       284    2        5.498855940900     172.837945175475      19.067138482500
       285    2       11.815203666848     213.978578336483       2.380980279360
       286    2       -8.902731315800     226.110419904865      15.277297759500
       287    2      -10.649452657020     232.943553058322      12.114570060600
       288    1      -10.985050877930     224.629768015189      24.940805684700
       289    1       20.748230799840     208.010400013706      10.263428323800
       290    2       21.934107307680     185.446350673137       3.725269505100
       291    1       16.264822697960     173.560111505009      25.128900530700
       292    2       -6.888410379010     201.774541439793      29.467461393900
       293    2       26.419159281316     151.097173124874      11.268744195600
       294    2      -11.173952864770     222.673251299551      24.481265337300
       295    2        1.693631774340     190.512960091856       7.509611608800
       296    2       10.062998958940     151.849800538601      26.051226312300
       297    2       -1.052681638480     194.676480546503      14.282558466900
       298    2        1.220499733700     162.723430080325       9.279295657500
       299    1        5.173449572876     153.947149277363       0.908750501820
       300    2       -4.174881340500     230.175686548165      23.885791909500
       301    2       -3.131109389070     181.003716230817       4.327413389100
       302    1       20.608675102580     192.880542180187      12.182025800100
       303    2       10.261028374592     181.966427057860       2.903267985690
       304    2        2.948648489620     172.632151242438      28.024749887400
       305    1       -0.319361878794     152.173858354304       0.848445972120
       306    2        5.993511119900     166.766598398985      17.409439975500
       307    1        6.556988510700     190.504037975795      26.986352158500
       308    1        3.119130635400     233.389880412355      23.335028566500
       309    2       15.122079785840     151.987933638113      26.124421047900
       310    2       21.463613292240     151.223406710835      11.078816476500
       311    2      -11.135962442140     219.018580540137      16.903927565100
       312    1        2.343069393636     176.984010437097       2.655748990020
       313    2       19.860826121840     164.155962710621      23.114422758300
       314    1        5.299759629140     221.452325990406      28.216570573800
       315    2       14.669305426000     243.800388269190       4.911799437000
       316    2        5.519279944259     167.410709318275       0.242566933119
       317    1       15.582916202332     168.716301408216       2.958194084490
       318    2       21.770665695040     197.476929701061      13.911596970300
       319    1        0.321231312080     180.986890031327      11.767976762100
       320    2       10.324268187760     235.004914076234       8.306280418200
       321    2       13.759518768640     214.915615431926      18.594287269800
       322    2        2.885690824740     174.122334461076      17.829588574800
       323    1        7.008416215720     230.800951008573      17.260526547900
       324    2       -7.369474486260     239.797176255376      23.397316204800
       325    1       22.279854560300     176.695464313635       6.930513850500
       326    1       14.590662147640     204.936225511401      21.820594632300
       327    2       -5.679263829500     182.958461067158      25.703911883400
       328    2        0.172852625200     183.255587759470       8.999406921000
       329    2        6.001712362400     194.120849962660      26.440847058000
       330    1        1.041713542000     235.574470626975      28.991695612500
       331    1       -5.349827285480     220.470983949988       3.931482752400
       332    1       17.452072055660     155.300371219383      24.095941326900
       333    1        5.546642578740     152.198166996310       3.497181969000
       334    2       -1.014205379780     169.457628346068      20.031920816400
       335    2       -3.140986844040     209.723022730219      12.224572493700
       336    2      -11.411675305400     244.648211887480       5.151274824000
       337    2        1.019531380120     160.819919928813      11.909738979900
       338    2       24.550234554280     153.834118983262      14.293585752600
       339    1       -3.411199296560     238.490890437371       8.498010963300
       340    3        1.936127391880     219.381979519427      12.444036512100
       341    2        7.781899106520     207.747285078393      21.787422633900
       342    1       -1.201006068060     162.781805808122       6.129187740600
       343    2        2.424724110760     201.494058723934       6.326176528200
       344    1        5.312899720500     188.521222917540      24.693307722000
       345    2       -5.319539650300     239.580445641390      28.564876557000
       346    1       13.536753562280     231.632470012362      17.298295752600
       347    3        3.832734174380     202.628335008377      17.730823757100
       348    1        8.268392220460     157.833471135703      23.689103592900
       349    2        3.536975436020     185.091709300698      19.160254445400
       350    2        6.605805180420     212.843683570513      25.409901009900
       351    2        3.702451064960     208.208935499949      26.066970992700
       352    1       -6.796899996700     211.721898764435       3.985898050500
       353    2       15.729891994140     175.808369138626      22.076746159800
       354    1       12.240679464620     223.807383897338       1.093534157400
       355    1      -15.253045374960     245.253649545101       3.542943702300
       356    2       12.055523439480     239.817654457497      22.038376013100
       357    1       -1.211613780400     220.175416689245      12.162615373500
       358    2       26.812279586300     161.708845077500      17.400275610000
       359    2      -14.182684025622     241.540580672955       1.868061258810
       360    2        2.915486864420     224.968999663378      13.206121109400
       361    1        5.159090584660     182.407103536074      14.139023470200
       362    1       -0.902977728760     164.441330778050      12.645322035000
       363    2       19.088216315760     154.174922939761      14.815413738300
       364    1        2.838202556620     206.200266369538      16.050980537400
       365    3       -9.814419935820     210.115802434089      12.197830574700
       366    2       10.369072976000     192.875829615120       0.731947356000
       367    2       12.590000327740     216.838984315836      12.507646222800
       368    1       -0.804815392960     199.697815376851      21.731955687300