 # LAMMPS timestep 2846
 
       15233  atoms
           3  atom types
 
      0.000000000000     285.950000000000  xlo xhi
      0.000000000000     142.692000000000  ylo yhi
      0.000000000000     144.034000000000  zlo zhi
 
Masses
 
            1   24.30500000             # Mg
            2   28.08500000             # Si
            3   15.99900000             # O
 
Atoms # charge
 
         1    1   1.200000       66.185300000000      81.800200000000       1.198960000000
         2    3  -1.200000       65.035400000000      84.521300000000       4.293480000000
         3    2   2.400000       65.689400000000      83.043600000000       4.224640000000
         4    3  -1.200000       67.263000000000      83.019500000000       4.243080000000
         5    3  -1.200000       65.034000000000      82.364800000000       2.932210000000
         6    1   1.200000       65.926400000000      81.707900000000       7.265370000000
         7    3  -1.200000       65.112000000000      84.482700000000      10.311600000000
         8    2   2.400000       65.759500000000      82.973300000000      10.314900000000
         9    3  -1.200000       67.324900000000      83.005300000000      10.332100000000
        10    3  -1.200000       65.031200000000      82.342800000000       9.033890000000
        11    3  -1.200000       65.047600000000      82.344800000000      11.600700000000
        12    1   1.200000       65.995600000000      81.674900000000      13.332300000000
        13    3  -1.200000       65.214900000000      84.468700000000      16.329600000000
        14    2   2.400000       65.867600000000      82.956900000000      16.364500000000
        15    3  -1.200000       67.434200000000      82.999300000000      16.361800000000
        16    3  -1.200000       65.015300000000      89.543900000000      16.447100000000
        17    3  -1.200000       65.117400000000      82.304300000000      15.105100000000
        18    3  -1.200000       65.180500000000      82.372900000000      17.680600000000
        19    1   1.200000       66.136200000000      81.634900000000      19.381200000000
        20    3  -1.200000       65.485600000000      84.523300000000      22.293000000000
        21    3  -1.200000       65.213900000000      87.452600000000      21.191600000000
        22    3  -1.200000       65.050200000000      87.277400000000      23.719700000000
        23    2   2.400000       66.143900000000      83.026000000000      22.402000000000
        24    3  -1.200000       67.719900000000      83.020000000000      22.386100000000
        25    3  -1.200000       65.129100000000      89.629300000000      22.433900000000
        26    3  -1.200000       65.326000000000      82.268300000000      21.268200000000
        27    3  -1.200000       65.670800000000      82.591200000000      23.876900000000
        28    1   1.200000       66.504400000000      91.979600000000       1.296340000000
        29    3  -1.200000       65.337800000000      89.993400000000       1.334020000000
        30    3  -1.200000       65.339100000000      94.705800000000       4.408520000000
        31    3  -1.200000       65.138200000000      97.759300000000       3.263150000000
        32    3  -1.200000       65.123800000000      97.681800000000       5.814560000000
        33    2   2.400000       66.004700000000      93.233900000000       4.328380000000
        34    3  -1.200000       67.578800000000      93.212300000000       4.333660000000
        35    3  -1.200000       65.222700000000      99.858500000000       4.583750000000
        36    3  -1.200000       65.349100000000      92.557000000000       3.036920000000
        37    3  -1.200000       65.322500000000      92.552300000000       5.625670000000
        38    1   1.200000       66.269000000000      91.886200000000       7.366030000000
        39    3  -1.200000       65.128800000000      90.015400000000       7.442800000000
        40    3  -1.200000       65.418500000000      94.654900000000      10.427000000000
        41    3  -1.200000       65.121900000000      97.619800000000       9.243860000000
        42    3  -1.200000       65.129200000000      97.611500000000      11.801100000000
        43    2   2.400000       66.079800000000      93.151700000000      10.417200000000
        44    3  -1.200000       67.645200000000      93.187000000000      10.423100000000
        45    3  -1.200000       65.171400000000      99.760900000000      10.535300000000
        46    3  -1.200000       65.361200000000      92.522500000000       9.133990000000
        47    3  -1.200000       65.376800000000      92.507400000000      11.702100000000
        48    1   1.200000       66.336900000000      91.839400000000      13.428900000000
        49    3  -1.200000       65.173700000000      89.962800000000      13.427900000000
        50    3  -1.200000       65.492300000000      94.645300000000      16.428200000000
        51    3  -1.200000       65.171200000000      97.600200000000      15.246100000000
        52    3  -1.200000       65.196300000000      97.614000000000      17.807700000000
        53    2   2.400000       66.163000000000      93.143800000000      16.452500000000
        54    3  -1.200000       67.728000000000      93.195400000000      16.440500000000
        55    3  -1.200000       65.212300000000      99.752000000000      16.523500000000
        56    3  -1.200000       65.431000000000      92.477200000000      15.193700000000
        57    3  -1.200000       65.476100000000      92.536200000000      17.763100000000
        58    1   1.200000       66.449700000000      91.856000000000      19.459200000000
        59    3  -1.200000       65.293700000000      89.992400000000      19.423500000000
        60    3  -1.200000       65.642400000000      94.755200000000      22.365100000000
        61    3  -1.200000       65.343600000000      97.673700000000      21.281600000000
        62    3  -1.200000       65.110000000000      97.512300000000      23.804500000000
        63    2   2.400000       66.317400000000      93.271700000000      22.477500000000
        64    3  -1.200000       67.899200000000      93.271900000000      22.477000000000
        65    3  -1.200000       65.239100000000      99.867100000000      22.499300000000
        66    3  -1.200000       65.562700000000      92.509500000000      21.299300000000
        67    3  -1.200000       65.776800000000      92.769200000000      23.900100000000
        68    1   1.200000       66.734400000000     102.139000000000       1.392090000000
        69    3  -1.200000       65.572200000000     100.165000000000       1.438380000000
        70    3  -1.200000       65.563600000000     104.879000000000       4.508000000000
        71    3  -1.200000       65.350900000000     107.906000000000       3.370230000000
        72    3  -1.200000       65.333800000000     107.865000000000       5.921030000000
        73    2   2.400000       66.234400000000     103.410000000000       4.424380000000
        74    3  -1.200000       67.808800000000     103.391000000000       4.422230000000
        75    3  -1.200000       65.429200000000     110.024000000000       4.659170000000
        76    3  -1.200000       65.578100000000     102.732000000000       3.133600000000
        77    3  -1.200000       65.557400000000     102.726000000000       5.724020000000
        78    1   1.200000       66.507900000000     102.070000000000       7.465470000000
        79    3  -1.200000       65.379800000000     100.199000000000       7.549470000000
        80    3  -1.200000       65.627500000000     104.850000000000      10.522000000000
        81    3  -1.200000       65.318000000000     107.808000000000       9.347200000000
        82    3  -1.200000       65.310800000000     107.829000000000      11.903800000000
        83    2   2.400000       66.294900000000     103.350000000000      10.510700000000
        84    3  -1.200000       67.860200000000     103.388000000000      10.508200000000
        85    3  -1.200000       65.356200000000     109.964000000000      10.613700000000
        86    3  -1.200000       65.584000000000     102.715000000000       9.226690000000
        87    3  -1.200000       65.589000000000     102.701000000000      11.792800000000
        88    1   1.200000       66.544800000000     102.047000000000      13.521800000000
        89    3  -1.200000       65.395700000000     100.164000000000      13.525600000000
        90    3  -1.200000       65.652200000000     104.868000000000      16.514100000000
        91    3  -1.200000       65.317900000000     107.821000000000      15.341400000000
        92    3  -1.200000       65.317300000000     107.858000000000      17.900300000000
        93    2   2.400000       66.327600000000     103.369000000000      16.533000000000
        94    3  -1.200000       67.892200000000     103.424000000000      16.515800000000
        95    3  -1.200000       65.341400000000     109.986000000000      16.596900000000
        96    3  -1.200000       65.610500000000     102.699000000000      15.268500000000
        97    3  -1.200000       65.628300000000     102.750000000000      17.831500000000
        98    1   1.200000       66.584500000000     102.088000000000      19.534000000000
        99    3  -1.200000       65.450300000000     100.215000000000      19.506200000000
       100    3  -1.200000       65.708700000000     104.983000000000      22.435700000000
       101    3  -1.200000       65.405000000000     107.906000000000      21.361000000000
       102    3  -1.200000       65.120000000000     107.733000000000      23.876600000000
       103    2   2.400000       66.386400000000     103.501000000000      22.545300000000
       104    3  -1.200000       67.969300000000     103.517000000000      22.560900000000
       105    3  -1.200000       65.289800000000     110.101000000000      22.573500000000
       106    3  -1.200000       65.662300000000     102.749000000000      21.340300000000
       107    3  -1.200000       65.798700000000     102.955000000000      23.930400000000
       108    1   1.200000       66.940500000000     112.273000000000       1.471320000000
       109    3  -1.200000       65.767100000000     110.308000000000       1.518870000000
       110    3  -1.200000       65.775200000000     115.038000000000       4.576810000000
       111    3  -1.200000       65.576600000000     118.037000000000       3.426490000000
       112    3  -1.200000       65.551300000000     118.033000000000       5.978500000000
       113    2   2.400000       66.443900000000     113.568000000000       4.498050000000
       114    3  -1.200000       68.018200000000     113.551000000000       4.492600000000
       115    3  -1.200000       65.659300000000     120.173000000000       4.684800000000
       116    3  -1.200000       65.786100000000     112.886000000000       3.208710000000
       117    3  -1.200000       65.763800000000     112.891000000000       5.799190000000
       118    1   1.200000       66.707300000000     112.252000000000       7.549040000000
       119    3  -1.200000       65.579000000000     110.384000000000       7.634370000000
       120    3  -1.200000       65.807200000000     115.053000000000      10.592700000000
       121    3  -1.200000       65.511100000000     117.997000000000       9.405490000000
       122    3  -1.200000       65.482600000000     118.049000000000      11.964000000000
       123    2   2.400000       66.473600000000     113.552000000000      10.585500000000
       124    3  -1.200000       68.039000000000     113.591000000000      10.578000000000
       125    3  -1.200000       65.548100000000     120.167000000000      10.644700000000
       126    3  -1.200000       65.769800000000     112.913000000000       9.300250000000
       127    3  -1.200000       65.759000000000     112.908000000000      11.864600000000
       128    1   1.200000       66.699600000000     112.268000000000      13.602400000000
       129    3  -1.200000       65.554100000000     110.387000000000      13.610600000000
       130    3  -1.200000       65.768600000000     115.106000000000      16.587600000000
       131    3  -1.200000       65.442600000000     118.054000000000      15.401300000000
       132    3  -1.200000       65.410100000000     118.109000000000      17.958700000000
       133    2   2.400000       66.443400000000     113.607000000000      16.600900000000
       134    3  -1.200000       68.008000000000     113.661000000000      16.582300000000
       135    3  -1.200000       65.457100000000     120.230000000000      16.638200000000
       136    3  -1.200000       65.739300000000     112.940000000000      15.328500000000
       137    3  -1.200000       65.728700000000     112.978000000000      17.885900000000
       138    1   1.200000       66.671900000000     112.323000000000      19.593000000000
       139    3  -1.200000       65.542400000000     110.455000000000      19.588800000000
       140    3  -1.200000       65.735600000000     115.209000000000      22.496200000000
       141    3  -1.200000       65.424700000000     118.140000000000      21.403700000000
       142    3  -1.200000       65.082000000000     117.939000000000      23.906300000000
       143    2   2.400000       66.418800000000     113.728000000000      22.595900000000
       144    3  -1.200000       68.001500000000     113.766000000000      22.637200000000
       145    3  -1.200000       65.307200000000     120.326000000000      22.619600000000
       146    3  -1.200000       65.719200000000     112.995000000000      21.363500000000
       147    3  -1.200000       65.780500000000     113.128000000000      23.933900000000
       148    1   1.200000       67.189100000000     122.392000000000       1.485070000000
       149    3  -1.200000       66.002000000000     120.421000000000       1.541700000000
       150    2   2.400000       65.219800000000     128.878000000000       4.608490000000
       151    3  -1.200000       66.045100000000     125.184000000000       4.556770000000
       152    3  -1.200000       65.884500000000     128.184000000000       3.335250000000
       153    3  -1.200000       65.852600000000     128.178000000000       5.891470000000
       154    2   2.400000       66.703600000000     123.708000000000       4.496800000000
       155    3  -1.200000       68.277300000000     123.693000000000       4.496210000000
       156    3  -1.200000       65.990400000000     130.318000000000       4.602820000000
       157    3  -1.200000       66.045300000000     123.018000000000       3.212180000000
       158    3  -1.200000       66.012300000000     123.048000000000       5.800560000000
       159    1   1.200000       66.937500000000     122.430000000000       7.564650000000
       160    3  -1.200000       65.797800000000     120.561000000000       7.663990000000
       161    2   2.400000       65.095100000000     128.889000000000      10.591300000000
       162    3  -1.200000       66.034200000000     125.252000000000      10.590200000000
       163    3  -1.200000       65.788300000000     128.177000000000       9.336960000000
       164    3  -1.200000       65.737600000000     128.242000000000      11.902300000000
       165    2   2.400000       66.689900000000     123.747000000000      10.592500000000
       166    3  -1.200000       68.255700000000     123.784000000000      10.586900000000
       167    3  -1.200000       65.840600000000     130.350000000000      10.566300000000
       168    3  -1.200000       65.994700000000     123.107000000000       9.303830000000
       169    3  -1.200000       65.959100000000     123.113000000000      11.869100000000
       170    1   1.200000       66.865600000000     122.492000000000      13.630300000000
       171    3  -1.200000       65.712800000000     120.613000000000      13.653000000000
       172    3  -1.200000       65.909800000000     125.348000000000      16.616600000000
       173    3  -1.200000       65.633200000000     128.272000000000      15.381300000000
       174    3  -1.200000       65.539400000000     128.361000000000      17.951900000000
       175    2   2.400000       66.575100000000     123.843000000000      16.624600000000
       176    3  -1.200000       68.140100000000     123.895000000000      16.607900000000
       177    3  -1.200000       65.660800000000     130.456000000000      16.597600000000
       178    3  -1.200000       65.886400000000     123.186000000000      15.340600000000
       179    3  -1.200000       65.836400000000     123.212000000000      17.897000000000
       180    1   1.200000       66.748500000000     122.566000000000      19.624000000000
       181    3  -1.200000       65.614200000000     120.704000000000      19.644900000000
       182    3  -1.200000       65.724300000000     125.455000000000      22.538300000000
       183    3  -1.200000       65.320000000000     128.382000000000      21.466000000000
       184    2   2.400000       66.430200000000     123.977000000000      22.630000000000
       185    3  -1.200000       68.010800000000     124.057000000000      22.706200000000
       186    3  -1.200000       65.208200000000     130.583000000000      22.640200000000
       187    3  -1.200000       65.770700000000     123.265000000000      21.360300000000
       188    3  -1.200000       65.725800000000     123.311000000000      23.903600000000
       189    1   1.200000       67.558700000000     132.562000000000       1.332700000000
       190    3  -1.200000       66.370400000000     130.536000000000       1.437220000000
       191    3  -1.200000       66.438300000000     135.345000000000       4.365800000000
       192    2   2.400000       67.080200000000     133.860000000000       4.327620000000
       193    3  -1.200000       68.653800000000     133.845000000000       4.351220000000
       194    3  -1.200000       66.429500000000     133.164000000000       3.044930000000
       195    1   1.200000       65.040300000000     134.940000000000       5.818160000000
       196    3  -1.200000       66.374400000000     133.214000000000       5.632620000000
       197    1   1.200000       67.280100000000     132.603000000000       7.411340000000
       198    3  -1.200000       66.118800000000     130.724000000000       7.563920000000
       199    3  -1.200000       66.409400000000     135.425000000000      10.425800000000
       200    1   1.200000       65.031300000000     134.929000000000       8.884170000000
       201    2   2.400000       67.045100000000     133.912000000000      10.442000000000
       202    3  -1.200000       68.611500000000     133.950000000000      10.462800000000
       203    3  -1.200000       66.358500000000     133.283000000000       9.144770000000
       204    3  -1.200000       66.296800000000     133.287000000000      11.717100000000
       205    1   1.200000       67.158800000000     132.693000000000      13.524400000000
       206    3  -1.200000       65.978900000000     130.809000000000      13.585400000000
       207    3  -1.200000       66.223400000000     135.539000000000      16.539300000000
       208    2   2.400000       66.848300000000     134.022000000000      16.551300000000
       209    3  -1.200000       68.418000000000     134.077000000000      16.547100000000
       210    3  -1.200000       66.192800000000     133.391000000000      15.236300000000
       211    3  -1.200000       66.064200000000     133.400000000000      17.803300000000
       212    1   1.200000       66.866200000000     132.816000000000      19.612900000000
       213    3  -1.200000       65.707400000000     130.940000000000      19.672800000000
       214    3  -1.200000       65.673400000000     135.644000000000      22.627600000000
       215    2   2.400000       66.390500000000     134.170000000000      22.661200000000
       216    3  -1.200000       67.979900000000     134.288000000000      22.770200000000
       217    3  -1.200000       65.877600000000     133.538000000000      21.291400000000
       218    3  -1.200000       65.542400000000     133.493000000000      23.848500000000
       219    1   1.200000       65.779400000000      76.036700000000       4.306370000000
       220    2   2.400000       68.651500000000      77.865600000000       4.404000000000
       221    3  -1.200000       67.093400000000      77.985300000000       4.333990000000
       222    3  -1.200000       69.314200000000      77.208400000000       3.107450000000
       223    3  -1.200000       69.285600000000      77.122000000000       5.660980000000
       224    3  -1.200000       69.430100000000      79.302400000000       4.442960000000
       225    1   1.200000       68.073500000000      76.484100000000       1.662180000000
       226    3  -1.200000       66.227300000000      76.183200000000       0.248630000000
       227    3  -1.200000       66.654200000000      75.414900000000       2.609260000000
       228    1   1.200000       65.838800000000      76.031700000000      10.266400000000
       229    2   2.400000       68.618900000000      77.777000000000      10.377500000000
       230    3  -1.200000       67.059700000000      77.914100000000      10.336700000000
       231    3  -1.200000       69.284800000000      77.097000000000       9.088500000000
       232    3  -1.200000       69.289700000000      77.087800000000      11.648200000000
       233    3  -1.200000       69.378800000000      79.234400000000      10.388000000000
       234    1   1.200000       68.281000000000      76.493100000000       7.374320000000
       235    3  -1.200000       66.740100000000      75.386200000000       5.985730000000
       236    3  -1.200000       66.750000000000      75.376100000000       8.537010000000
       237    1   1.200000       65.901100000000      76.054400000000      16.245200000000
       238    2   2.400000       68.708200000000      77.810900000000      16.393400000000
       239    3  -1.200000       67.149000000000      77.947100000000      16.332700000000
       240    3  -1.200000       69.358000000000      77.130400000000      15.090400000000
       241    3  -1.200000       69.406900000000      77.128500000000      17.649200000000
       242    3  -1.200000       69.473700000000      79.266600000000      16.393600000000
       243    1   1.200000       68.330500000000      76.508600000000      13.398100000000
       244    3  -1.200000       66.763100000000      75.360200000000      11.963500000000
       245    3  -1.200000       66.793800000000      75.409900000000      14.511100000000
       246    1   1.200000       66.243700000000      76.140000000000      22.364600000000
       247    2   2.400000       69.038300000000      77.738200000000      22.475700000000
       248    3  -1.200000       67.484600000000      77.802400000000      22.296500000000
       249    3  -1.200000       69.671800000000      77.158500000000      21.071100000000
       250    3  -1.200000       69.671600000000      76.875800000000      23.650600000000
       251    3  -1.200000       69.671700000000      79.225300000000      22.458100000000
       252    1   1.200000       68.532700000000      76.579200000000      19.475700000000
       253    3  -1.200000       66.849500000000      75.414800000000      17.920000000000
       254    3  -1.200000       66.974600000000      75.453200000000      20.474000000000
       255    1   1.200000       65.927700000000      78.143100000000       0.155863000000
       256    1   1.200000       70.998000000000      81.607500000000       1.239720000000
       257    2   2.400000       68.236000000000      79.879900000000       1.332590000000
       258    3  -1.200000       69.816000000000      79.596200000000       1.287810000000
       259    3  -1.200000       66.800000000000      83.690800000000       1.137550000000
       260    3  -1.200000       67.684700000000      80.801100000000       0.226534000000
       261    1   1.200000       66.008800000000      79.082000000000       2.925010000000
       262    3  -1.200000       67.519200000000      80.427500000000       2.686450000000
       263    1   1.200000       66.198000000000      86.247300000000       4.382440000000
       264    2   2.400000       69.032400000000      88.056900000000       4.469380000000
       265    3  -1.200000       67.473500000000      88.174900000000       4.417020000000
       266    3  -1.200000       69.864200000000      84.337200000000       4.333450000000
       267    3  -1.200000       69.696800000000      87.408300000000       3.168500000000
       268    3  -1.200000       69.683200000000      87.319200000000       5.722090000000
       269    1   1.200000       68.361800000000      83.826000000000       2.605790000000
       270    1   1.200000       68.348800000000      81.107600000000       4.419210000000
       271    2   2.400000       70.516000000000      82.858400000000       4.266280000000
       272    3  -1.200000       72.090100000000      82.832500000000       4.277770000000
       273    3  -1.200000       69.798600000000      89.500500000000       4.502610000000
       274    3  -1.200000       69.857800000000      82.177200000000       2.977690000000
       275    1   1.200000       68.480900000000      83.915700000000       5.782320000000
       276    3  -1.200000       69.824600000000      82.189600000000       5.564770000000
       277    1   1.200000       68.468700000000      86.693400000000       1.712590000000
       278    2   2.400000       66.251300000000      85.169000000000       1.273730000000
       279    3  -1.200000       67.563400000000      78.398200000000       1.211660000000
       280    3  -1.200000       66.624700000000      86.392300000000       0.307883000000
       281    3  -1.200000       67.061800000000      85.627700000000       2.670610000000
       282    1   1.200000       65.926500000000      78.858300000000       5.875630000000
       283    1   1.200000       70.759600000000      81.530300000000       7.313500000000
       284    2   2.400000       68.035800000000      79.790800000000       7.387890000000
       285    3  -1.200000       69.595400000000      79.658300000000       7.392580000000
       286    3  -1.200000       67.107400000000      83.425700000000       7.313090000000
       287    3  -1.200000       67.365700000000      80.488900000000       6.111050000000
       288    1   1.200000       65.909200000000      78.884200000000       8.848400000000
       289    3  -1.200000       67.366700000000      80.457500000000       8.665710000000
       290    1   1.200000       66.287100000000      86.208400000000      10.360800000000
       291    2   2.400000       69.023900000000      87.949700000000      10.447500000000
       292    3  -1.200000       67.464100000000      88.082700000000      10.426900000000
       293    3  -1.200000       69.953300000000      84.317900000000      10.353000000000
       294    3  -1.200000       69.692200000000      87.277400000000       9.157190000000
       295    3  -1.200000       69.711400000000      87.270600000000      11.717700000000
       296    1   1.200000       68.530100000000      83.855500000000       8.838240000000
       297    1   1.200000       68.366800000000      81.063200000000      10.366100000000
       298    2   2.400000       70.599000000000      82.807700000000      10.360000000000
       299    3  -1.200000       72.164900000000      82.835900000000      10.370000000000
       300    3  -1.200000       69.764900000000      89.417300000000      10.452500000000
       301    3  -1.200000       69.870400000000      82.174000000000       9.082200000000
       302    1   1.200000       68.570100000000      83.872700000000      11.860100000000
       303    3  -1.200000       69.892400000000      82.184800000000      11.651400000000
       304    1   1.200000       68.699300000000      86.684900000000       7.436620000000
       305    2   2.400000       66.466300000000      84.933600000000       7.333870000000
       306    3  -1.200000       67.283600000000      78.329700000000       7.350810000000
       307    3  -1.200000       67.172300000000      85.582800000000       6.056600000000
       308    3  -1.200000       67.196000000000      85.565100000000       8.611020000000
       309    1   1.200000       65.925400000000      78.841600000000      11.835400000000
       310    1   1.200000       70.839300000000      81.520000000000      13.388300000000
       311    2   2.400000       68.081300000000      79.775700000000      13.346200000000
       312    3  -1.200000       69.643000000000      79.653800000000      13.371400000000
       313    3  -1.200000       67.186200000000      83.403200000000      13.369800000000
       314    3  -1.200000       67.400300000000      80.473900000000      12.077200000000
       315    1   1.200000       65.974100000000      78.880900000000      14.843700000000
       316    3  -1.200000       67.430200000000      80.463300000000      14.629600000000
       317    1   1.200000       66.397700000000      86.191300000000      16.379600000000
       318    2   2.400000       69.130900000000      87.961500000000      16.472900000000
       319    3  -1.200000       67.569300000000      88.078800000000      16.440000000000
       320    3  -1.200000       70.068900000000      84.340900000000      16.366400000000
       321    3  -1.200000       69.788300000000      87.286200000000      15.176800000000
       322    3  -1.200000       69.842300000000      87.303600000000      17.743800000000
       323    1   1.200000       68.627300000000      83.857800000000      14.880700000000
       324    1   1.200000       68.450600000000      81.063300000000      16.333000000000
       325    2   2.400000       70.721100000000      82.829500000000      16.415400000000