ITEM: TIMESTEP
0
ITEM: NUMBER OF ATOMS
13020
ITEM: BOX BOUNDS pp pp pp
0	148.41
0	154.076
0	6.02273
ITEM: ATOMS id type element xu yu zu q Disorder
1 1 Mg 2.3937 5.13588 3.76481 0 0.323454
2 1 Mg 2.3937 5.13588 0.753444 0 0.392902
3 1 Mg 4.77097 2.90897 5.30123 0 0.358516
4 1 Mg 2.41015 8.04485 5.25081 0 0.253042
5 1 Mg 2.37726 2.22689 2.27802 0 0.549858
6 1 Mg 0.0164428 7.36275 2.22846 0 0.43537
7 2 Si 2.11883 0.997289 5.29547 0 0.608369
8 2 Si 0.274886 6.13315 5.24987 0 0.422923
9 2 Si 4.51252 4.13857 2.28007 0 0.308692
10 2 Si 2.66859 9.27444 2.23256 0 0.393031
11 3 O 3.75042 0.938001 5.3068 0 0.601047
12 3 O 3.43069 6.07388 5.27117 0 0.151049
13 3 O 1.35672 4.19788 2.25846 0 0.274933
14 3 O 1.03699 9.33372 2.22136 0 0.0154763
15 3 O 1.0008 4.64622 5.26454 0 0.508252
16 3 O 1.3929 9.78208 5.23189 0 0.32895
17 3 O 3.39451 0.489637 2.29582 0 0.470179
18 3 O 3.78661 5.62552 2.26524 0 0.698171
19 3 O 1.42318 1.6946 3.99125 0 0.571652
20 3 O 0.970532 6.83047 3.95445 0 0.205779
21 3 O 3.81688 3.44126 0.984662 0 0.612398
22 3 O 3.36423 8.57713 0.946936 0 0.0335744
23 3 O 3.36423 8.57713 3.53736 0 0.211074
24 3 O 3.81688 3.44126 3.57509 0 0.601875
25 3 O 0.970532 6.83047 0.522153 0 0.217072
26 3 O 1.42318 1.6946 0.558953 0 0.437654
27 1 Mg 4.78741 2.6e-07 3.81404 0 0.596908
28 1 Mg 7.18111 5.13588 3.79785 0 0.209852
29 1 Mg 7.18111 5.13588 0.786484 0 0.193024
30 1 Mg 4.78741 2.6e-07 0.802667 0 0.332209
31 1 Mg 9.55838 2.90897 5.33528 0 0.223362
32 1 Mg 7.19756 8.04485 5.28388 0 0
33 1 Mg 7.16467 2.22689 2.31098 0 0.240906
34 1 Mg 4.80385 7.36275 2.26041 0 0.0575569
35 2 Si 6.90623 0.997286 5.32827 0 0.356831
36 2 Si 5.06229 6.13315 5.28195 0 0.280942
37 2 Si 9.29993 4.13857 2.31407 0 0.207962
38 2 Si 7.456 9.27445 2.26575 0 0.0596092
39 3 O 8.53783 0.937999 5.3403 0 0.424871
40 3 O 8.2181 6.07388 5.30471 0 0.0146828
41 3 O 6.14413 4.19786 2.29102 0 0.149187
42 3 O 5.82439 9.33372 2.25375 0 0.0429758
43 3 O 5.78821 4.64622 5.29694 0 0.31777
44 3 O 6.18031 9.78208 5.26444 0 0.070372
45 3 O 8.1819 0.489641 2.32915 0 0.671525
46 3 O 8.57402 5.62552 2.29893 0 0.318174
47 3 O 6.21057 1.6946 4.02377 0 0.481461
48 3 O 5.75794 6.83047 3.98684 0 0.238122
49 3 O 8.60429 3.44127 1.01831 0 0.300581
50 3 O 8.15164 8.57713 0.980464 0 0.0479996
51 3 O 8.15164 8.57713 3.57089 0 0.0862246
52 3 O 8.60429 3.44127 3.60874 0 0.280683
53 3 O 5.75794 6.83047 0.554548 0 0.184875
54 3 O 6.21057 1.6946 0.59148 0 0.4664
55 1 Mg 11.9685 5.13588 3.83316 0 0.176112
56 1 Mg 11.9685 5.13588 0.821789 0 0.163138
57 1 Mg 14.3458 2.90897 5.37159 0 0.20717
58 1 Mg 11.985 8.04485 5.31932 0 0.0222189
59 1 Mg 11.9521 2.22689 2.3461 0 0.191546
60 1 Mg 9.59126 7.36275 2.29463 0 0
61 2 Si 11.6936 0.997288 5.36319 0 0.278625
62 2 Si 9.8497 6.13315 5.31626 0 0.0771407
63 2 Si 14.0873 4.13857 2.35035 0 0.186837
64 2 Si 12.2434 9.27445 2.30136 0 0
65 3 O 13.3252 0.937999 5.37596 0 0.346075
66 3 O 13.0055 6.07388 5.34058 0 0.099382
67 3 O 10.9315 4.19788 2.32578 0 0.0743292
68 3 O 10.6118 9.33372 2.28852 0 0.0314429
69 3 O 10.5756 4.64622 5.33155 0 0.236433
70 3 O 10.9677 9.78208 5.2994 0 0
71 3 O 12.9693 0.489638 2.36461 0 0.62345
72 3 O 13.3614 5.62552 2.33495 0 0.270977
73 3 O 10.998 1.6946 4.05842 0 0.468044
74 3 O 10.5454 6.83047 4.02152 0 0.109471
75 3 O 13.3917 3.44126 1.0542 0 0.29012
76 3 O 12.9391 8.57713 1.01641 0 0.0069635
77 3 O 12.9391 8.57713 3.60684 0 0.0360578
78 3 O 13.3917 3.44126 3.64463 0 0.260634
79 3 O 10.5454 6.83047 0.589227 0 0.0612616
80 3 O 10.998 1.6946 0.626129 0 0.421683
81 1 Mg 14.3622 1.6e-07 3.88399 0 0.503794
82 1 Mg 16.7559 5.13588 3.87087 0 0.173176
83 1 Mg 16.7559 5.13588 0.859498 0 0.154656
84 1 Mg 14.3622 1.6e-07 0.872627 0 0.261347
85 1 Mg 19.1332 2.90897 5.41026 0 0.201729
86 1 Mg 16.7724 8.04485 5.3573 0 0.0206623
87 1 Mg 16.7395 2.22689 2.3835 0 0.188467
88 1 Mg 14.3787 7.36275 2.33128 0 0
89 2 Si 16.4811 0.997288 5.40034 0 0.269307
90 2 Si 14.6371 6.13315 5.35297 0 0.0645815
91 2 Si 18.8748 4.13857 2.38904 0 0.167321
92 2 Si 17.0308 9.27445 2.33957 0 0
93 3 O 18.1127 0.937999 5.41387 0 0.312482
94 3 O 17.7929 6.07388 5.37892 0 0.0987969
95 3 O 15.719 4.19786 2.36287 0 0.0561769
96 3 O 15.3992 9.33372 2.32583 0 0.0193593
97 3 O 15.363 4.64622 5.3685 0 0.17447
98 3 O 15.7551 9.78208 5.33693 0 0.00191967
99 3 O 17.7567 0.48964 2.4023 0 0.623039
100 3 O 18.1488 5.62552 2.37344 0 0.253867
101 3 O 15.7853 1.6946 4.09531 0 0.476073
102 3 O 15.3328 6.83047 4.05863 0 0.0805105
103 3 O 18.179 3.44127 1.09246 0 0.290486
104 3 O 17.7265 8.57713 1.05496 0 0.00978403
105 3 O 17.7265 8.57713 3.64539 0 0.0410593
106 3 O 18.179 3.44127 3.68289 0 0.262325
107 3 O 15.3328 6.83047 0.62634 0 0.0389841
108 3 O 15.7853 1.6946 0.663012 0 0.415534
109 1 Mg 21.5433 5.13588 3.91111 0 0.165175
110 1 Mg 21.5433 5.13588 0.899736 0 0.14378
111 1 Mg 23.9206 2.90897 5.4514 0 0.186968
112 1 Mg 21.5598 8.04485 5.39795 0 0.0194923
113 1 Mg 21.5269 2.22689 2.42329 0 0.184805
114 1 Mg 19.1661 7.36275 2.3705 0 0
115 2 Si 21.2685 0.997288 5.4398 0 0.234817
116 2 Si 19.4245 6.13315 5.39219 0 0.0611632
117 2 Si 23.6622 4.13857 2.43026 0 0.153735
118 2 Si 21.8182 9.27445 2.38053 0 0
119 3 O 22.9001 0.937999 5.45414 0 0.334516
120 3 O 22.5803 6.07388 5.41987 0 0
121 3 O 20.5064 4.19788 2.40242 0 0.0612651
122 3 O 20.1866 9.33372 2.36584 0 0.0195665
123 3 O 20.1504 4.64622 5.40794 0 0.183494
124 3 O 20.5425 9.78208 5.3772 0 0.00345897
125 3 O 22.5442 0.48964 2.4423 0 0.609573
126 3 O 22.9363 5.62552 2.41452 0 0.238841
127 3 O 20.5727 1.6946 4.13453 0 0.476024
128 3 O 20.1202 6.83047 4.09832 0 0.079022
129 3 O 22.9664 3.44127 1.13318 0 0.333147
130 3 O 22.5139 8.57713 1.09623 0 0.00985238
131 3 O 22.5139 8.57713 3.68666 0 0.0436558
132 3 O 22.9664 3.44127 3.72361 0 0.284178
133 3 O 20.1202 6.83047 0.666024 0 0.0416939
134 3 O 20.5727 1.6946 0.702238 0 0.450586
135 1 Mg 23.937 1.7e-07 3.96288 0 0.452885
136 1 Mg 26.3308 5.13588 3.95398 0 0.152707
137 1 Mg 26.3308 5.13588 0.942611 0 0.130184
138 1 Mg 23.937 1.79999e-07 0.951507 0 0.25433
139 1 Mg 28.708 2.90897 5.49508 0 0.170782
140 1 Mg 26.3472 8.04485 5.44141 0 0.0184624
141 1 Mg 26.3143 2.22689 2.46554 0 0.177744
142 1 Mg 23.9535 7.36275 2.41243 0 0
143 2 Si 26.0559 0.997288 5.48165 0 0.227959
144 2 Si 24.2119 6.13315 5.43406 0 0.0594863
145 2 Si 28.4496 4.13857 2.47409 0 0.148422
146 2 Si 26.6056 9.27445 2.42438 0 0
147 3 O 27.6875 0.938001 5.49681 0 0.353547
148 3 O 27.3677 6.07388 5.46353 0 0
149 3 O 25.2938 4.19788 2.44454 0 0.0674728
150 3 O 24.974 9.33372 2.40871 0 0.0216448
151 3 O 24.9379 4.64622 5.44994 0 0.198533
152 3 O 25.33 9.78208 5.42035 0 0.00649856
153 3 O 27.3316 0.48964 2.4847 0 0.56482
154 3 O 27.7237 5.62552 2.45828 0 0.222601
155 3 O 25.3602 1.6946 4.17618 0 0.510705
156 3 O 24.9077 6.83047 4.14071 0 0.0825108
157 3 O 27.7539 3.44127 1.17647 0 0.36006
158 3 O 27.3014 8.57713 1.14038 0 0.0105352
159 3 O 27.3014 8.57713 3.73081 0 0.0427888
160 3 O 27.7539 3.44127 3.7669 0 0.310859
161 3 O 24.9077 6.83047 0.708418 0 0.0484475
162 3 O 25.3602 1.6946 0.743885 0 0.496021
163 1 Mg 31.1182 5.13588 3.99956 0 0.147529
164 1 Mg 31.1182 5.13588 0.988197 0 0.116425
165 1 Mg 33.4954 2.90897 5.54134 0 0.157541
166 1 Mg 31.1346 8.04485 5.48779 0 0.0179208
167 1 Mg 31.1017 2.22689 2.51032 0 0.163656
168 1 Mg 28.7409 7.36275 2.45718 0 0
169 2 Si 30.8433 0.997288 5.52596 0 0.21249
170 2 Si 28.9995 6.13315 5.47868 0 0.0568991
171 2 Si 33.237 4.13857 2.52059 0 0.130933
172 2 Si 31.3932 9.27445 2.47125 0 0
173 3 O 32.4749 0.937999 5.54194 0 0.307264
174 3 O 32.1553 6.07388 5.50998 0 0
175 3 O 30.0812 4.19788 2.48929 0 0.0587775
176 3 O 29.7615 9.33372 2.45455 0 0.0222436
177 3 O 29.7253 4.64622 5.4946 0 0.211697
178 3 O 30.1174 9.78208 5.46654 0 0.00769743
179 3 O 32.119 0.48964 2.52951 0 0.544722
180 3 O 32.5111 5.62552 2.50481 0 0.19925
181 3 O 30.1476 1.6946 4.22031 0 0.503675
182 3 O 29.6951 6.83047 4.18591 0 0.081934
183 3 O 32.5413 3.44127 1.22237 0 0.342537
184 3 O 32.0888 8.57713 1.1875 0 0.00983935
185 3 O 32.0888 8.57713 3.77793 0 0.0402308
186 3 O 32.5413 3.44127 3.8128 0 0.317369
187 3 O 29.6951 6.83047 0.753612 0 0.0575012
188 3 O 30.1476 1.6946 0.78802 0 0.544481
189 1 Mg 33.5119 1.1e-07 4.05123 0 0.32108
190 1 Mg 35.9056 5.13588 4.0479 0 0.134303
191 1 Mg 35.9056 5.13588 1.03654 0 0.105016
192 1 Mg 33.5119 1.1e-07 1.03985 0 0.181615
193 1 Mg 38.2828 2.90897 5.59019 0 0.130952
194 1 Mg 35.922 8.04485 5.53715 0 0.0169672
195 1 Mg 35.8891 2.22689 2.55764 0 0.146525
196 1 Mg 33.5283 7.36275 2.50484 0 0
197 2 Si 35.6307 0.997288 5.57273 0 0.196227
198 2 Si 33.7869 6.13315 5.52611 0 0.053751
199 2 Si 38.0244 4.13857 2.56977 0 0.132125
200 2 Si 36.1804 9.27445 2.52121 0 0
201 3 O 37.2623 0.938002 5.58952 0 0.283931
202 3 O 36.9427 6.07388 5.55926 0 0
203 3 O 34.8686 4.19788 2.53672 0 0.0634071
204 3 O 34.549 9.33372 2.50347 0 0.0208394
205 3 O 34.5127 4.64622 5.54198 0 0.182627
206 3 O 34.9048 9.78208 5.51583 0 0.000843214
207 3 O 36.9065 0.489638 2.57675 0 0.431317
208 3 O 37.2985 5.62552 2.55413 0 0.166873
209 3 O 34.9351 1.6946 4.26696 0 0.475592
210 3 O 34.4825 6.83047 4.23397 0 0.0759611
211 3 O 37.3288 3.44127 1.27091 0 0.329372
212 3 O 36.876 8.57713 1.23765 0 0.00760071
213 3 O 36.876 8.57713 3.82808 0 0.036454
214 3 O 37.3288 3.44127 3.86134 0 0.311792
215 3 O 34.4825 6.83047 0.80168 0 0.0603691
216 3 O 34.9351 1.6946 0.83466 0 0.569744
217 1 Mg 40.693 5.13588 4.09899 0 0.11587
218 1 Mg 40.693 5.13588 1.08761 0 0.0887519
219 1 Mg 43.0704 2.90897 5.64158 0 0.0997098
220 1 Mg 40.7095 8.04485 5.58949 0 0.015875
221 1 Mg 40.6767 2.22689 2.60749 0 0.12391
222 1 Mg 38.3158 7.36275 2.55543 0 0
223 2 Si 40.4181 0.997286 5.62194 0 0.183368
224 2 Si 38.5741 6.13315 5.57637 0 0.0512877
225 2 Si 42.8118 4.13857 2.62158 0 0.137861
226 2 Si 40.9678 9.27445 2.57425 0 0.00193222
227 3 O 42.0497 0.937999 5.63952 0 0.295231
228 3 O 41.7301 6.07388 5.61134 0 0.100081
229 3 O 39.656 4.19786 2.58683 0 0.051394
230 3 O 39.3364 9.33372 2.55549 0 0.0195188
231 3 O 39.3002 4.64622 5.59207 0 0.181452
232 3 O 39.6923 9.78208 5.56827 0 0.000162155
233 3 O 41.6939 0.48964 2.62638 0 0.384411
234 3 O 42.086 5.62552 2.60622 0 0.130658
235 3 O 39.7225 1.6946 4.31609 0 0.434325
236 3 O 39.2697 6.83047 4.28493 0 0.0670719
237 3 O 42.1162 3.44127 1.32204 0 0.311083
238 3 O 41.6634 8.57713 1.29082 0 0.00621901
239 3 O 41.6634 8.57713 3.88125 0 0.032539
240 3 O 42.1162 3.44127 3.91246 0 0.279403
241 3 O 39.2697 6.83047 0.852632 0 0.0644798
242 3 O 39.7225 1.6946 0.883793 0 0.589016
243 1 Mg 45.4804 5.13588 4.15273 0 0.0990767
244 1 Mg 45.4804 5.13588 1.14136 0 0.0721626
245 1 Mg 47.8578 2.90897 5.69538 0 0.0721677
246 1 Mg 45.4969 8.04485 5.64476 0 0.0144641
247 1 Mg 45.4641 2.22689 2.65977 0 0.0859997
248 1 Mg 43.1032 7.36275 2.60892 0 0.0420304
249 2 Si 45.2055 0.997288 5.67349 0 0.174618
250 2 Si 43.3615 6.13315 5.62943 0 0.0528158
251 2 Si 47.5992 4.13857 2.67592 0 0.149947
252 2 Si 45.7552 9.27445 2.63034 0 0.00430178
253 3 O 46.8372 0.938002 5.69181 0 0.285215
254 3 O 46.5173 6.07388 5.66615 0 0.0890302
255 3 O 44.4435 4.19788 2.63955 0 0.0338853
256 3 O 44.1236 9.33372 2.61058 0 0.0176221
257 3 O 44.0876 4.64622 5.64482 0 0.178565
258 3 O 44.4797 9.78208 5.62382 0 0
259 3 O 46.4813 0.489638 2.67828 0 0.326076
260 3 O 46.8734 5.6255 2.66098 0 0.0914023
261 3 O 44.5099 1.6946 4.36764 0 0.404482
262 3 O 44.0571 6.83047 4.33873 0 0.0588957
263 3 O 46.9036 3.44127 1.37565 0 0.262423
264 3 O 46.4508 8.57713 1.34696 0 0.0024499
265 3 O 46.4508 8.57713 3.93739 0 0.0277728
266 3 O 46.9036 3.44127 3.96608 0 0.246857
267 3 O 44.0571 6.83047 0.906433 0 0.0639311
268 3 O 44.5099 1.6946 0.935348 0 0.60422
269 1 Mg 47.8741 3e-08 4.20136 0 0.0782524
270 1 Mg 50.2678 5.13588 4.209 0 0.0858931
271 1 Mg 50.2678 5.13588 1.19763 0 0.0581975
272 1 Mg 47.8741 3e-08 1.18999 0 0.067702
273 1 Mg 52.645 2.90897 5.75142 0 0.0338092
274 1 Mg 50.2843 8.04485 5.70282 0 0.0130666
275 1 Mg 50.2513 2.22689 2.71433 0 0.0548157
276 1 Mg 47.8906 7.36275 2.66521 0 0.0393231
277 2 Si 49.9929 0.997286 5.72725 0 0.176744
278 2 Si 48.149 6.13315 5.68517 0 0.0571398
279 2 Si 52.3867 4.13857 2.7326 0 0.168735
280 2 Si 50.5427 9.27445 2.68933 0 0.00616591
281 3 O 51.6246 0.937999 5.74624 0 0.261595
282 3 O 51.3047 6.07388 5.72351 0 0.0690896
283 3 O 49.2309 4.19788 2.69475 0 0.00855519
284 3 O 48.911 9.33372 2.66864 0 0.0154739
285 3 O 48.8748 4.64622 5.70009 0 0.169248
286 3 O 49.2671 9.78208 5.68237 0 0
287 3 O 51.2685 0.48964 2.73231 0 0.292251
288 3 O 51.6606 5.62552 2.71824 0 0.0763059
289 3 O 49.2973 1.6946 4.42147 0 0.346907
290 3 O 48.8446 6.83047 4.39525 0 0.0487625
291 3 O 51.6911 3.44127 1.43158 0 0.215379
292 3 O 51.2383 8.57713 1.40589 0 0
293 3 O 51.2383 8.57713 3.99632 0 0.0238825
294 3 O 51.6911 3.44127 4.02202 0 0.19682
295 3 O 48.8446 6.83047 0.96295 0 0.0578561
296 3 O 49.2973 1.6946 0.989173 0 0.542783
297 1 Mg 55.0552 5.13588 4.26755 0 0.0704811
298 1 Mg 55.0552 5.13588 1.25618 0 0.0454839
299 1 Mg 57.4324 2.90897 5.80944 0 0
300 1 Mg 55.0717 8.04485 5.76342 0 0.0110756
301 1 Mg 55.0387 2.22689 2.77096 0 0.0197847
302 1 Mg 52.678 7.36275 2.72412 0 0.0344446
303 2 Si 54.7804 0.997288 5.783 0 0.19313
304 2 Si 52.9364 6.13315 5.74339 0 0.0645694
305 2 Si 57.1741 4.13857 2.79137 0 0.195382
306 2 Si 55.3301 9.27445 2.75097 0 0.00760606
307 3 O 56.4118 0.938001 5.80256 0 0.220251
308 3 O 56.0922 6.07388 5.78318 0 0.0581176
309 3 O 54.0183 4.19788 2.75221 0 0
310 3 O 53.6984 9.33372 2.72945 0 0.0135434
311 3 O 53.6622 4.64622 5.75769 0 0.150983
312 3 O 54.0543 9.78208 5.7437 0 0
313 3 O 56.0559 0.48964 2.78822 0 0.196128
314 3 O 56.448 5.62552 2.77775 0 0.0353232
315 3 O 54.0848 1.6946 4.47738 0 0.272021
316 3 O 53.6321 6.83047 4.45428 0 0.0375583
317 3 O 56.4785 3.44127 1.48959 0 0.111812
318 3 O 56.0258 8.57713 1.46735 0 0
319 3 O 56.0258 8.57713 4.05778 0 0.0167406
320 3 O 56.4785 3.44127 4.08002 0 0.122941
321 3 O 53.6321 6.83047 1.02199 0 0.0476075
322 3 O 54.0848 1.6946 1.04508 0 0.456231
323 1 Mg 57.4489 9e-08 4.31176 0 0.0359183
324 1 Mg 59.8426 5.13588 4.32807 0 0.0529471
325 1 Mg 59.8426 5.13588 1.3167 0 0.0349222
326 1 Mg 57.4489 9e-08 1.30039 0 0
327 1 Mg 62.2199 2.90897 5.86908 0 0
328 1 Mg 59.8591 8.04485 5.82621 0 0.0102623
329 1 Mg 59.8261 2.22689 2.82935 0 0
330 1 Mg 57.4654 7.36275 2.78535 0 0.0295264
331 2 Si 59.5678 0.997288 5.84045 0 0.205909
332 2 Si 57.7238 6.13315 5.80381 0 0.0711647
333 2 Si 61.9615 4.13857 2.85186 0 0.196511
334 2 Si 60.1175 9.27445 2.81489 0 0.00975947
335 3 O 61.1994 0.937999 5.86048 0 0.169618
336 3 O 60.8796 6.07388 5.84481 0 0.0491742
337 3 O 58.8057 4.19788 2.81165 0 0.0407397
338 3 O 58.4859 9.33372 2.79269 0 0.0109081
339 3 O 58.4496 4.64622 5.81731 0 0.129974
340 3 O 58.8417 9.78208 5.80746 0 0
341 3 O 60.8434 0.48964 2.84571 0 0.117714
342 3 O 61.2355 5.62552 2.83915 0 0.00177521
343 3 O 58.8722 1.6946 4.53507 0 0.209262
344 3 O 58.4195 6.83047 4.51552 0 0.0251811
345 3 O 61.2659 3.44127 1.54933 0 0.0788274
346 3 O 60.8132 8.57713 1.53098 0 0
347 3 O 60.8132 8.57713 4.12141 0 0.0114146
348 3 O 61.2659 3.44127 4.13976 0 0.109145
349 3 O 58.4195 6.83047 1.08322 0 0.0359689
350 3 O 58.8722 1.6946 1.10277 0 0.372099
351 1 Mg 64.63 5.13588 4.39015 0 0.0485864
352 1 Mg 64.63 5.13588 1.37878 0 0.0299822
353 1 Mg 67.0073 2.90897 5.92995 0 0.0409399
354 1 Mg 64.6465 8.04485 5.89077 0 0.00978159
355 1 Mg 64.6136 2.22689 2.88913 0 0
356 1 Mg 62.2528 7.36275 2.84851 0 0.0250418
357 2 Si 64.3552 0.997288 5.89925 0 0.217868
358 2 Si 62.5112 6.13315 5.86605 0 0.0826316
359 2 Si 66.7489 4.13857 2.91366 0 0.200848
360 2 Si 64.9049 9.27445 2.88062 0 0.0106723
361 3 O 65.9868 0.937999 5.91961 0 0.11952
362 3 O 65.667 6.07388 5.90795 0 0.0430817
363 3 O 63.5931 4.19788 2.87269 0 0.018245
364 3 O 63.2733 9.33372 2.85791 0 0.0103388
365 3 O 63.2371 4.64622 5.8786 0 0.111685
366 3 O 63.6292 9.78208 5.87322 0 0
367 3 O 65.6309 0.489638 2.90444 0 0.099641
368 3 O 66.023 5.62552 2.90201 0 0.0167476
369 3 O 63.6594 1.6946 4.59422 0 0.157843
370 3 O 63.2069 6.83047 4.57857 0 0.0215067
371 3 O 66.0531 3.44126 1.61041 0 0.049794
372 3 O 65.6006 8.57713 1.5963 0 0
373 3 O 65.6006 8.57713 4.18673 0 0.0085361
374 3 O 66.0531 3.44126 4.20084 0 0.0682883
375 3 O 63.2069 6.83047 1.14627 0 0.0262432
376 3 O 63.6594 1.6946 1.16192 0 0.298412
377 1 Mg 67.0237 4e-08 4.42795 0 0
378 1 Mg 69.4174 5.13588 4.45332 0 0.0403284
379 1 Mg 69.4174 5.13588 1.44195 0 0.0275583
380 1 Mg 67.0237 4e-08 1.41658 0 0
381 1 Mg 71.7947 2.90897 5.99157 0 0.0273271
382 1 Mg 69.4339 8.04485 5.95655 0 0.00884233
383 1 Mg 69.401 2.22689 2.94989 0 0.0240053
384 1 Mg 67.0402 7.36275 2.91313 0 0.0223788
385 2 Si 69.1426 0.997288 5.95901 0 0.240924
386 2 Si 67.2986 6.13315 5.92965 0 0.0905432
387 2 Si 71.5363 4.13857 2.97628 0 0.209732
388 2 Si 69.6923 9.27445 2.94762 0 0.0100324
389 3 O 70.7742 0.938001 5.97954 0 0.12332
390 3 O 70.4544 6.07388 5.97211 0 0.0395841
391 3 O 68.3805 4.19788 2.93487 0 0.00143926
392 3 O 68.0607 9.33372 2.92461 0 0.0119912
393 3 O 68.0246 4.64622 5.94109 0 0.0974178
394 3 O 68.4167 9.78208 5.94044 0 0
395 3 O 70.4183 0.48964 2.96398 0 0.0774591
396 3 O 70.8104 5.62552 2.96583 0 0.0180769
397 3 O 68.4468 1.6946 4.6544 0 0.140246
398 3 O 67.9943 6.83047 4.64294 0 0.0245138
399 3 O 70.8405 3.44127 1.67236 0 0.0323184
400 3 O 70.388 8.57713 1.66276 0 0
401 3 O 70.388 8.57713 4.25319 0 0.00562043
402 3 O 70.8405 3.44127 4.26279 0 0.0276245
403 3 O 67.9943 6.83047 1.21064 0 0.0209014
404 3 O 68.4468 1.6946 1.2221 0 0.241258
405 1 Mg 74.2049 5.13588 4.51705 0 0.0227175
406 1 Mg 74.2049 5.13588 1.50568 0 0.0289217
407 1 Mg 74.1884 2.22689 3.01115 0 0.00527493
408 1 Mg 71.8276 7.36275 2.97866 0 0.0199213
409 2 Si 73.93 0.997288 6.01926 0 0.284355
410 2 Si 72.086 6.13315 5.99409 0 0.0970075
411 3 O 73.1679 4.19788 2.99771 0 0.00263547
412 3 O 72.8481 9.33372 2.99215 0 0.0129816
413 3 O 72.812 4.64622 6.00429 0 0.091236
414 3 O 73.2041 9.78208 6.00846 0 0
415 3 O 73.2343 1.6946 4.71517 0 0.127688
416 3 O 72.7817 6.83047 4.70808 0 0.00429346
417 3 O 72.7817 6.83047 1.27579 0 0.0135301
418 3 O 73.2343 1.6946 1.28287 0 0.182987
419 1 Mg 1.2e-07 10.2717 3.71368 0 0.397685
420 1 Mg 2.3937 15.4076 3.69122 0 0.22006
421 1 Mg 2.3937 15.4076 0.679846 0 0.287131
422 1 Mg 1.3e-07 10.2717 0.702305 0 0.273899
423 1 Mg 4.77097 13.1807 5.22981 0 0.0622885
424 1 Mg 2.41015 18.3166 5.17419 0 0.206726
425 1 Mg 2.37726 12.4986 2.20734 0 0.232301
426 1 Mg 0.0164401 17.6345 2.15286 0 0.35934
427 2 Si 2.11882 11.269 5.226 0 0.226614
428 2 Si 0.274875 16.4049 5.17548 0 0.461781
429 2 Si 4.51254 14.4103 2.20739 0 0.0968295
430 2 Si 2.66859 19.5462 2.15459 0 0.422091
431 3 O 3.75042 11.2097 5.23736 0 0.427736
432 3 O 3.43069 16.3456 5.19652 0 0.0317446
433 3 O 1.35672 14.4696 2.18589 0 0.0778702
434 3 O 1.03698 19.6056 2.14358 0 0
435 3 O 1.00079 14.918 5.19155 0 0.179596
436 3 O 1.3929 20.0538 5.15357 0 0.337296
437 3 O 3.39451 10.7614 2.22683 0 0
438 3 O 3.78662 15.8973 2.19103 0 0.506634
439 3 O 1.42318 11.9663 3.92112 0 0.215883
440 3 O 0.970524 17.1021 3.87926 0 0.0818953
441 3 O 3.81688 13.713 0.912721 0 0.639392
442 3 O 3.36423 18.8489 0.869622 0 0.0212557
443 3 O 3.36423 18.8489 3.46005 0 0.157976
444 3 O 3.81688 13.713 3.50315 0 0.578094
445 3 O 0.970524 17.1021 0.446971 0 0.213931
446 3 O 1.42318 11.9663 0.488822 0 0.142878
447 1 Mg 4.78741 10.2717 3.74555 0 0.139152
448 1 Mg 7.18111 15.4076 3.72405 0 0.0412353
449 1 Mg 7.18111 15.4076 0.712676 0 0.027015
450 1 Mg 4.78741 10.2717 0.734177 0 0.113619
451 1 Mg 9.55838 13.1807 5.264 0 0.00103068
452 1 Mg 7.19756 18.3166 5.20681 0 0.0225285
453 1 Mg 7.16467 12.4986 2.2403 0 0
454 1 Mg 4.80385 17.6345 2.18426 0 0.0166434
455 2 Si 6.90623 11.269 5.25887 0 0.0701251
456 2 Si 5.06229 16.4049 5.20713 0 0.204029
457 2 Si 9.29993 14.4103 2.2414 0 0.0214079
458 2 Si 7.456 19.5462 2.18723 0 0.0739325
459 3 O 8.53783 11.2097 5.27106 0 0.061717
460 3 O 8.2181 16.3456 5.22985 0 0.0542756
461 3 O 6.14413 14.4696 2.21824 0 0
462 3 O 5.82439 19.6056 2.17531 0 0
463 3 O 5.78821 14.918 5.22369 0 0.107162
464 3 O 6.18031 20.0538 5.18545 0 0.0279081
465 3 O 8.18192 10.7614 2.26035 0 0
466 3 O 8.57402 15.8973 2.22458 0 0
467 3 O 6.21059 11.9663 3.95362 0 0.0954187
468 3 O 5.75794 17.1021 3.91122 0 0.133264
469 3 O 8.60429 13.713 0.946388 0 0.0276395
470 3 O 8.15164 18.8489 0.902717 0 0
471 3 O 8.15164 18.8489 3.49315 0 0.0364382
472 3 O 8.60429 13.713 3.53682 0 0.0459867
473 3 O 5.75794 17.1021 0.478923 0 0.148556
474 3 O 6.21059 11.9663 0.521328 0 0.03289
475 1 Mg 9.57482 10.2717 3.77979 0 0.0238184
476 1 Mg 11.9685 15.4076 3.75951 0 0.00636696
477 1 Mg 11.9685 15.4076 0.74815 0 0
478 1 Mg 9.57482 10.2717 0.768422 0 0.015771
479 1 Mg 14.3458 13.1807 5.30085 0 0
480 1 Mg 11.985 18.3166 5.24217 0 0
481 1 Mg 11.9521 12.4986 2.2758 0 0
482 1 Mg 9.59126 17.6345 2.21827 0 0.000909341
483 2 Si 11.6936 11.269 5.29423 0 0.00449161
484 2 Si 9.8497 16.4049 5.24135 0 0.0216846
485 2 Si 14.0874 14.4103 2.27812 0 0.0094389
486 2 Si 12.2434 19.5462 2.22266 0 0.0107829
487 3 O 13.3252 11.2097 5.3073 0 0
488 3 O 13.0055 16.3456 5.2659 0 0
489 3 O 10.9315 14.4696 2.25315 0 0.00997194
490 3 O 10.6118 19.6056 2.20976 0 0.00382065
491 3 O 10.5756 14.918 5.25839 0 0.0204438
492 3 O 10.9677 20.0538 5.22007 0 0
493 3 O 12.9693 10.7614 2.29639 0 0.000959326
494 3 O 13.3614 15.8973 2.26085 0 0
495 3 O 10.998 11.9663 3.98861 0 0.00327152
496 3 O 10.5453 17.1021 3.9458 0 0.0164791
497 3 O 13.3917 13.713 0.982699 0 0
498 3 O 12.9391 18.8489 0.938624 0 0
499 3 O 12.9391 18.8489 3.52905 0 0
500 3 O 13.3917 13.713 3.57313 0 0
501 3 O 10.5453 17.1021 0.513506 0 0
502 3 O 10.998 11.9663 0.556311 0 0
503 1 Mg 14.3622 10.2717 3.81657 0 0.0199403
504 1 Mg 16.7559 15.4076 3.79785 0 0.00697294
505 1 Mg 16.7559 15.4076 0.786484 0 0
506 1 Mg 14.3622 10.2717 0.805203 0 0.0107763
507 1 Mg 19.1332 13.1807 5.34057 0 0
508 1 Mg 16.7724 18.3166 5.28052 0 0
509 1 Mg 16.7395 12.4986 2.31404 0 0
510 1 Mg 14.3787 17.6345 2.25512 0 0
511 2 Si 16.4811 11.269 5.33225 0 0.0042646
512 2 Si 14.6371 16.4049 5.27838 0 0.0094235
513 2 Si 18.8748 14.4103 2.31775 0 0.00942015
514 2 Si 17.0308 19.5462 2.26117 0 0.00944321
515 3 O 18.1127 11.2097 5.34627 0 0
516 3 O 17.7929 16.3456 5.30491 0 0
517 3 O 15.719 14.4696 2.29083 0 0
518 3 O 15.3992 19.6056 2.24719 0 0
519 3 O 15.363 14.918 5.29586 0 0
520 3 O 15.7551 20.0538 5.25772 0 0
521 3 O 17.7567 10.7614 2.33512 0 0.00247726
522 3 O 18.1488 15.8973 2.30008 0 0
523 3 O 15.7853 11.9663 4.02626 0 0
524 3 O 15.3328 17.1021 3.98325 0 0
525 3 O 18.179 13.713 1.02186 0 0
526 3 O 17.7265 18.8489 0.977604 0 0
527 3 O 17.7265 18.8489 3.56803 0 0
528 3 O 18.179 13.713 3.61229 0 0
529 3 O 15.3328 17.1021 0.550959 0 0
530 3 O 15.7853 11.9663 0.593962 0 0
531 1 Mg 19.1496 10.2717 3.85607 0 0.0194865
532 1 Mg 21.5433 15.4076 3.83927 0 0.00735257
533 1 Mg 21.5433 15.4076 0.827903 0 0
534 1 Mg 19.1496 10.2717 0.8447 0 0.0103552
535 1 Mg 23.9206 13.1807 5.38334 0 0
536 1 Mg 21.5598 18.3166 5.32214 0 0
537 1 Mg 21.5269 12.4986 2.35518 0 0
538 1 Mg 19.1661 17.6345 2.29506 0 0
539 2 Si 21.2685 11.269 5.37311 0 0.00481058
540 2 Si 19.4245 16.4049 5.31846 0 0.00936971
541 2 Si 23.6622 14.4103 2.36049 0 0.00933515
542 2 Si 21.8182 19.5462 2.30302 0 0.00938035
543 3 O 22.9001 11.2097 5.38813 0 0
544 3 O 22.5803 16.3456 5.34711 0 0
545 3 O 20.5064 14.4696 2.3315 0 0
546 3 O 20.1866 19.6056 2.28787 0 0
547 3 O 20.1504 14.918 5.33633 0 0
548 3 O 20.5425 20.0538 5.29865 0 0
549 3 O 22.5442 10.7614 2.37671 0 0.0053187
550 3 O 22.9363 15.8973 2.34249 0 0
551 3 O 20.5727 11.9663 4.06676 0 0
552 3 O 20.1202 17.1021 4.02382 0 0
553 3 O 22.9664 13.713 1.06406 0 0
554 3 O 22.5139 18.8489 1.01993 0 0
555 3 O 22.5139 18.8489 3.61036 0 0
556 3 O 22.9664 13.713 3.65449 0 0
557 3 O 20.1202 17.1021 0.591523 0 0
558 3 O 20.5727 11.9663 0.634471 0 0
559 1 Mg 23.937 10.2717 3.89845 0 0.0193298
560 1 Mg 26.3308 15.4076 3.88399 0 0.00715046
561 1 Mg 26.3308 15.4076 0.872627 0 0
562 1 Mg 23.937 10.2717 0.887082 0 0.0101571
563 1 Mg 28.708 13.1807 5.42934 0 0
564 1 Mg 26.3472 18.3166 5.36726 0 0
565 1 Mg 26.3143 12.4986 2.39944 0 0
566 1 Mg 23.9535 17.6345 2.33834 0 0
567 2 Si 26.0559 11.269 5.41698 0 0.0054003
568 2 Si 24.2119 16.4049 5.3618 0 0.00930152
569 2 Si 28.4496 14.4103 2.40655 0 0.00922436
570 2 Si 26.6056 19.5462 2.34848 0 0.00932363
571 3 O 27.6875 11.2097 5.43306 0 0
572 3 O 27.3677 16.3456 5.39272 0 0
573 3 O 25.2938 14.4696 2.37536 0 0
574 3 O 24.974 19.6056 2.33208 0 0
575 3 O 24.9379 14.918 5.38001 0 0
576 3 O 25.33 20.0538 5.34317 0 0
577 3 O 27.3316 10.7614 2.42131 0 0.00791736
578 3 O 27.7237 15.8973 2.38828 0 0
579 3 O 25.3602 11.9663 4.1103 0 0
580 3 O 24.9077 17.1021 4.06773 0 0
581 3 O 27.7539 13.713 1.1095 0 0
582 3 O 27.3014 18.8489 1.06585 0 0
583 3 O 27.3014 18.8489 3.65628 0 0
584 3 O 27.7539 13.713 3.69993 0 0
585 3 O 24.9077 17.1021 0.63544 0 0
586 3 O 25.3602 11.9663 0.678009 0 0
587 1 Mg 28.7245 10.2717 3.94385 0 0.0191399
588 1 Mg 31.1182 15.4076 3.93221 0 0.00705329
589 1 Mg 31.1182 15.4076 0.920839 0 0
590 1 Mg 28.7245 10.2717 0.932475 0 0.010403
591 1 Mg 33.4954 13.1807 5.47871 0 0
592 1 Mg 31.1346 18.3166 5.41613 0 0
593 1 Mg 31.1017 12.4986 2.44694 0 0
594 1 Mg 28.7409 17.6345 2.38519 0 0
595 2 Si 30.8433 11.269 5.464 0 0.00612575
596 2 Si 28.9995 16.4049 5.40863 0 0.00920537
597 2 Si 33.237 14.4103 2.45608 0 0.00913609
598 2 Si 31.3932 19.5462 2.39782 0 0.00922653
599 3 O 32.4749 11.2097 5.48116 0 0.000463811
600 3 O 32.1553 16.3456 5.44195 0 0
601 3 O 30.0812 14.4696 2.42261 0 0
602 3 O 29.7615 19.6056 2.38007 0 0
603 3 O 29.7253 14.918 5.42709 0 0
604 3 O 30.1174 20.0538 5.39154 0 0
605 3 O 32.119 10.7614 2.46905 0 0.00284622
606 3 O 32.5111 15.8973 2.43767 0 0
607 3 O 30.1476 11.9663 4.15702 0 0
608 3 O 29.6951 17.1021 4.11523 0 0
609 3 O 32.5413 13.713 1.15834 0 0
610 3 O 32.0888 18.8489 1.11561 0 0
611 3 O 32.0888 18.8489 3.70604 0 0
612 3 O 32.5413 13.713 3.74877 0 0
613 3 O 29.6951 17.1021 0.682929 0 0
614 3 O 30.1476 11.9663 0.724727 0 0
615 1 Mg 33.5119 10.2717 3.99237 0 0.0189222
616 1 Mg 35.9056 15.4076 3.98407 0 0.0148128
617 1 Mg 35.9056 15.4076 0.972695 0 0.00100918
618 1 Mg 33.5119 10.2717 0.981006 0 0.011162
619 1 Mg 38.2828 13.1807 5.53155 0 0
620 1 Mg 35.922 18.3166 5.46894 0 0
621 1 Mg 35.8891 12.4986 2.49781 0 0
622 1 Mg 33.5283 17.6345 2.43583 0 0
623 2 Si 35.6307 11.269 5.51427 0 0.006951
624 2 Si 33.7869 16.4049 5.45914 0 0.00913183
625 2 Si 38.0244 14.4103 2.50921 0 0.0090675
626 2 Si 36.1804 19.5462 2.45124 0 0.00909532
627 3 O 37.2623 11.2097 5.53253 0 0.000162977
628 3 O 36.9427 16.3456 5.49493 0 0
629 3 O 34.8686 14.4696 2.47337 0 0
630 3 O 34.549 19.6056 2.4321 0 0
631 3 O 34.5127 14.918 5.47772 0 0
632 3 O 34.9048 20.0538 5.444 0 0
633 3 O 36.9065 10.7614 2.52001 0 0.002341
634 3 O 37.2985 15.8973 2.49078 0 0
635 3 O 34.9351 11.9663 4.20705 0 0
636 3 O 34.4825 17.1021 4.16649 0 0
637 3 O 37.3288 13.713 1.21068 0 0
638 3 O 36.876 18.8489 1.16941 0 0
639 3 O 36.876 18.8489 3.75984 0 0
640 3 O 37.3288 13.713 3.80111 0 0
641 3 O 34.4825 17.1021 0.734195 0 0
642 3 O 34.9351 11.9663 0.774746 0 0
643 1 Mg 38.2993 10.2717 4.04409 0 0.018422
644 1 Mg 40.693 15.4076 4.03966 0 0.014342
645 1 Mg 40.693 15.4076 1.02828 0 0.00236813
646 1 Mg 38.2993 10.2717 1.03272 0 0.011393
647 1 Mg 43.0704 13.1807 5.58788 0 0
648 1 Mg 40.7095 18.3166 5.52584 0 0
649 1 Mg 40.6767 12.4986 2.55209 0 0
650 1 Mg 38.3158 17.6345 2.49041 0 0
651 2 Si 40.4181 11.269 5.56784 0 0.00781252
652 2 Si 38.5741 16.4049 5.51347 0 0.00894221
653 2 Si 42.8118 14.4103 2.56596 0 0.00898166
654 2 Si 40.9678 19.5462 2.50891 0 0.00891085
655 3 O 42.0497 11.2097 5.58718 0 0
656 3 O 41.7301 16.3456 5.55178 0 0
657 3 O 39.656 14.4696 2.52776 0 0
658 3 O 39.3364 19.6056 2.48833 0 0
659 3 O 39.3002 14.918 5.53202 0 0
660 3 O 39.6923 20.0538 5.50073 0 0
661 3 O 41.6939 10.7614 2.57421 0 0.00252971
662 3 O 42.086 15.8973 2.54771 0 0
663 3 O 39.7225 11.9663 4.26042 0 0
664 3 O 39.2697 17.1021 4.22166 0 0
665 3 O 42.1162 13.713 1.26657 0 0
666 3 O 41.6634 18.8489 1.22738 0 0
667 3 O 41.6634 18.8489 3.81781 0 0
668 3 O 42.1162 13.713 3.857 0 0
669 3 O 39.2697 17.1021 0.789363 0 0
670 3 O 39.7225 11.9663 0.828125 0 0
671 1 Mg 43.0867 10.2717 4.09899 0 0.0176274
672 1 Mg 45.4804 15.4076 4.09899 0 0.0139143
673 1 Mg 45.4804 15.4076 1.08761 0 0.00290757
674 1 Mg 43.0867 10.2717 1.08761 0 0.0110244
675 1 Mg 47.8578 13.1807 5.64763 0 0
676 1 Mg 45.4969 18.3166 5.58686 0 0
677 1 Mg 45.4641 12.4986 2.60977 0 0
678 1 Mg 43.1032 17.6345 2.54902 0 0
679 2 Si 45.2055 11.269 5.62466 0 0.00862947
680 2 Si 43.3615 16.4049 5.57166 0 0.00876624
681 2 Si 47.5992 14.4103 2.62629 0 0.00882457
682 2 Si 45.7552 19.5462 2.57089 0 0.00871855
683 3 O 46.8372 11.2097 5.64506 0 0
684 3 O 46.5173 16.3456 5.61247 0 0
685 3 O 44.4435 14.4696 2.58577 0 0
686 3 O 44.1236 19.6056 2.54888 0 0
687 3 O 44.0876 14.918 5.59 0 0
688 3 O 44.4797 20.0538 5.56185 0 0
689 3 O 46.4813 10.7614 2.6316 0 0.000619568
690 3 O 46.8734 15.8973 2.6084 0 0
691 3 O 44.5099 11.9663 4.31715 0 0
692 3 O 44.0571 17.1021 4.28079 0 0
693 3 O 46.9036 13.713 1.32597 0 0
694 3 O 46.4508 18.8489 1.28955 0 0
695 3 O 46.4508 18.8489 3.87998 0 0
696 3 O 46.9036 13.713 3.9164 0 0
697 3 O 44.0571 17.1021 0.848494 0 0
698 3 O 44.5099 11.9663 0.884847 0 0
699 1 Mg 47.8741 10.2717 4.15697 0 0.0167429
700 1 Mg 50.2678 15.4076 4.16194 0 0.0134273
701 1 Mg 50.2678 15.4076 1.15057 0 0.0034812
702 1 Mg 47.8741 10.2717 1.1456 0 0.0106517
703 1 Mg 52.645 13.1807 5.71061 0 0
704 1 Mg 50.2843 18.3166 5.65193 0 0
705 1 Mg 50.2513 12.4986 2.6707 0 0
706 1 Mg 47.8906 17.6345 2.61165 0 0
707 2 Si 49.9929 11.269 5.68461 0 0.00931537
708 2 Si 48.149 16.4049 5.63368 0 0.00862907
709 2 Si 52.3867 14.4103 2.69002 0 0.00866543
710 2 Si 50.5427 19.5462 2.63709 0 0.00863887
711 3 O 51.6246 11.2097 5.70598 0 0
712 3 O 51.3047 16.3456 5.67689 0 0
713 3 O 49.2309 14.4696 2.64733 0 0
714 3 O 48.911 19.6056 2.6137 0 0
715 3 O 48.8748 14.918 5.6516 0 0
716 3 O 49.2671 20.0538 5.62731 0 0
717 3 O 51.2685 10.7614 2.692 0 0
718 3 O 51.6606 15.8973 2.67274 0 0
719 3 O 49.2973 11.9663 4.3771 0 0