ITEM: TIMESTEP
0
ITEM: NUMBER OF ATOMS
310
ITEM: BOX BOUNDS pp pp pp
0	17.5532
0	117.998
0	159.277
ITEM: ATOMS id type element xu yu zu Steinhardt[1] Steinhardt[2]
1 1 Ni 0 0 0 1.0483995266987318 0.8354212859694645
2 1 Ni 0 0 0 1.0891500598838797 0.9662817361193542
3 1 Ni 0 0 0 1.0647794507647763 0.767562822608795
4 1 Ni 0 0 0 1.0534668822818998 0.8632751155824726
5 1 Ni 0 0 0 1.0308499152236699 0.7283004236165193
6 1 Ni 0 0 0 1.0310507304900804 0.8769509097748824
7 1 Ni 0 0 0 1.061094847270285 0.9051829633376145
8 1 Ni 0 0 0 1.0123771083298327 0.797061864135427
9 1 Ni 0 0 0 1.0466617719930271 0.82861256195479
10 1 Ni 0 0 0 1.0132913188949804 0.7658314585832356
11 1 Ni 0 0 0 1.0598819186735098 0.991215238739477
12 1 Ni 0 0 0 1.0360993678829804 0.7711566974694393
13 1 Ni 0 0 0 1.0822765183831946 0.9257247261467697
14 1 Ni 0 0 0 1.0599980355517917 0.9030941387883148
15 1 Ni 0 0 0 1.051461622016413 0.924125128471567
16 1 Ni 0 0 0 1.0820421826757896 0.8989166856638341
17 1 Ni 0 0 0 1.0361079580773065 0.8010274488156365
18 1 Ni 0 0 0 1.0563774521629388 0.8368672782410506
19 1 Ni 0 0 0 1.045429320897179 0.7745478688653499
20 1 Ni 0 0 0 1.0880915993231164 0.8692150865482628
21 1 Ni 0 0 0 1.065788943221623 0.8330599162882576
22 1 Ni 0 0 0 1.0811071521554632 0.9777224886483042
23 1 Ni 0 0 0 1.0318462346311184 0.8718675494977013
24 1 Ni 0 0 0 1.0679209179626463 0.9327599007109515
25 1 Ni 0 0 0 1.0713065528624932 0.9520120895731985
26 1 Ni 0 0 0 1.0756587678435483 0.7358789921841442
27 1 Ni 0 0 0 1.0303623624118323 0.8443569194970599
28 1 Ni 0 0 0 1.013029891356831 0.7949626557506376
29 1 Ni 0 0 0 1.0549688972259395 0.9063260983956574
30 1 Ni 0 0 0 1.0844158368527959 0.9627549931048459
31 1 Ni 0 0 0 1.027948390292095 0.7076283349525363
32 1 Ni 0 0 0 1.0556186079662575 1.004156218980913
33 1 Ni 0 0 0 1.012950625049406 0.7384984295776752
34 1 Ni 0 0 0 1.0818286734180675 0.9564108613317787
35 1 Ni 0 0 0 1.1437302507525404 1.1239878231992733
36 1 Ni 0 0 0 1.0485624326266567 0.9073485870404786
37 1 Ni 0 0 0 1.0161357711656518 0.8125921139664897
38 1 Ni 0 0 0 1.0815662368485175 0.8714331856875778
39 1 Ni 0 0 0 1.0843783350442586 0.967736744502326
40 1 Ni 0 0 0 1.061986852818463 0.9971362480141748
41 1 Ni 0 0 0 1.039878203946336 0.8660688580887318
42 1 Ni 0 0 0 1.0744674596088866 0.9544576517606338
43 1 Ni 0 0 0 1.081268136703142 1.045108668241377
44 1 Ni 0 0 0 1.0116608299214656 0.818110295927678
45 1 Ni 0 0 0 1.0725682936596987 0.8530516034280428
46 1 Ni 0 0 0 1.0388105441801931 0.7130711859099683
47 1 Ni 0 0 0 1.0869495022613251 0.8358865980097803
48 1 Ni 0 0 0 1.0416526798920338 0.8633083215737889
49 1 Ni 0 0 0 1.0502979678272715 0.8431300193383385
50 1 Ni 0 0 0 1.0895499852787374 0.837138474213605
51 1 Ni 0 0 0 1.062260322811968 0.8822144229807866
52 1 Ni 0 0 0 1.107327584502809 0.9649085858867907
53 1 Ni 0 0 0 1.0814194545522544 0.8882971730627612
54 1 Ni 0 0 0 1.0587936162387033 0.7702689330428688
55 1 Ni 0 0 0 1.108261995739485 0.9874957641881675
56 1 Ni 0 0 0 1.0762381266914014 0.9854543494702432
57 1 Ni 0 0 0 1.012476686414118 0.6295453010274409
58 1 Ni 0 0 0 1.0544445421389699 0.7711403982170949
59 1 Ni 0 0 0 1.0839231772938738 0.8560911405631526
60 1 Ni 0 0 0 1.0223166985098775 0.7586031369360501
61 1 Ni 0 0 0 1.0643128021091885 0.8383506658964485
62 1 Ni 0 0 0 1.0410617812770249 0.7681389603302311
63 1 Ni 0 0 0 1.086676610855078 0.9968759572076065
64 1 Ni 0 0 0 1.0726374402428378 0.8551993352345965
65 1 Ni 0 0 0 0.9938211300608887 0.7741524701866288
66 1 Ni 0 0 0 1.00549428165637 0.7530070017677496
67 1 Ni 0 0 0 1.0675056259261937 0.8369219972283527
68 1 Ni 0 0 0 1.0845337120324636 0.9345014189897437
69 1 Ni 0 0 0 1.05274493526198 0.8142112662767922
70 1 Ni 0 0 0 1.046008085774339 0.8796753827346886
71 1 Ni 0 0 0 1.083203106547345 0.9144857787842243
72 1 Ni 0 0 0 1.0470599491642403 0.8962061615530823
73 1 Ni 0 0 0 1.0419533969215742 0.8231322205304361
74 1 Ni 0 0 0 1.0442327531385445 0.7396487590757179
75 1 Ni 0 0 0 1.0401085287004368 0.8045404241375278
76 1 Ni 0 0 0 1.0446550730512107 0.8112961199766068
77 1 Ni 0 0 0 1.0501635360259132 0.7587362610511568
78 1 Ni 0 0 0 1.1019517429924897 0.9673919788029903
79 1 Ni 0 0 0 1.0958638715207294 1.01815812885384
80 1 Ni 0 0 0 1.1088268729640585 1.0472293783137927
81 1 Ni 0 0 0 1.0606621295946046 0.7829084819979604
82 1 Ni 0 0 0 0.9885487098445886 0.6336614338630893
83 1 Ni 0 0 0 1.0822102798817759 0.8993580706972317
84 1 Ni 0 0 0 1.0637805527294721 0.9704507826729275
85 1 Ni 0 0 0 1.0333449538429313 0.853841875906273
86 1 Ni 0 0 0 1.0629047422584519 0.8737187555479415
87 1 Ni 0 0 0 1.0677940077850434 0.8583976189297685
88 1 Ni 0 0 0 1.0329397114291077 0.7782932101372949
89 1 Ni 0 0 0 1.121232315834925 1.0111025021790259
90 1 Ni 0 0 0 1.0634450951060401 0.8955000057882271
91 1 Ni 0 0 0 1.0546952313645392 0.806622290382823
92 1 Ni 0 0 0 1.092228605240688 1.0269744363909767
93 1 Ni 0 0 0 1.0763604516241208 0.8646943350379607
94 1 Ni 0 0 0 1.0578881130060938 0.8926392121345715
95 1 Ni 0 0 0 1.0424414118009386 0.8542998279236463
96 1 Ni 0 0 0 1.0503867492203822 0.8524939513282925
97 1 Ni 0 0 0 1.1004358482157042 1.031719378001619
98 1 Ni 0 0 0 1.0651529740876673 0.9007725654737108
99 1 Ni 0 0 0 1.0571281543849955 0.8231143402708939
100 1 Ni 0 0 0 1.0315774000973774 0.6291061315702071
101 1 Ni 0 0 0 1.1208997014848994 0.9086010692293784
102 1 Ni 0 0 0 1.0677481271888574 0.9977635988077215
103 1 Ni 0 0 0 1.043173181511409 0.8040324727062204
104 1 Ni 0 0 0 1.070514064902289 0.8761991051546869
105 1 Ni 0 0 0 1.0793130124078445 0.8864367976028015
106 1 Ni 0 0 0 1.0558023527460527 0.890581284675271
107 1 Ni 0 0 0 1.0766466143435174 0.8800679410655484
108 1 Ni 0 0 0 1.083595344006223 0.9965887525516436
109 1 Ni 0 0 0 1.1329273061207612 1.0495120548994716
110 1 Ni 0 0 0 1.067150270532838 1.011363249906392
111 1 Ni 0 0 0 1.0581814158690221 0.9534053803389178
112 1 Ni 0 0 0 1.0547187787156178 0.7988614928276185
113 1 Ni 0 0 0 1.058722582445825 0.9288147204811251
114 1 Ni 0 0 0 1.0731772526316978 0.9402046615824109
115 1 Ni 0 0 0 1.0136512539599505 0.8429677720674239
116 1 Ni 0 0 0 1.0396747059379683 0.909371624354721
117 1 Ni 0 0 0 1.0604583422721081 0.8446984801704118
118 1 Ni 0 0 0 1.07705442426743 0.801167097426761
119 1 Ni 0 0 0 1.0610561545981394 0.903612091078033
120 1 Ni 0 0 0 1.0217246397303068 0.8430531922423149
121 1 Ni 0 0 0 1.055014011411173 0.9090159429353312
122 1 Ni 0 0 0 1.0295210072127625 0.6571690019065792
123 1 Ni 0 0 0 1.050853886904871 0.8060299151230635
124 1 Ni 0 0 0 1.0360424449366978 0.733667001090316
125 1 Ni 0 0 0 1.0631768195968148 1.03558190321558
126 1 Ni 0 0 0 1.0798269235440385 0.8748973576393425
127 1 Ni 0 0 0 1.0800880154456032 0.8408706638288145
128 1 Ni 0 0 0 1.052780271656194 0.8765760196260333
129 1 Ni 0 0 0 1.0400149010070552 0.9087755367166275
130 1 Ni 0 0 0 1.0887079165394578 0.9924144049353799
131 1 Ni 0 0 0 1.074065844763676 0.9168276567331707
132 1 Ni 0 0 0 1.0368725542716148 0.8927483017521143
133 1 Ni 0 0 0 1.0242843424272547 0.8283677615036287
134 1 Ni 0 0 0 1.0516185962892766 0.8694970583274452
135 1 Ni 0 0 0 1.0840121617735665 0.9874611744758975
136 1 Ni 0 0 0 1.0274020993630641 0.8138408438708115
137 1 Ni 0 0 0 1.0782264971405922 0.885631253312658
138 1 Ni 0 0 0 1.0118644931088185 0.7128381126935406
139 1 Ni 0 0 0 1.0433487121490337 0.8581895629751387
140 1 Ni 0 0 0 1.0630072656091336 0.9201894041897678
141 1 Ni 0 0 0 1.069146856989473 1.0036479997742305
142 1 Ni 0 0 0 1.0292078593978906 0.8489311460857633
143 1 Ni 0 0 0 1.1238053000778447 0.9327944129854016
144 1 Ni 0 0 0 1.0360852738875852 0.6931773737514211
145 1 Ni 0 0 0 1.017551086531615 0.8799023649509157
146 1 Ni 0 0 0 1.0092450435251852 0.7779832931460127
147 1 Ni 0 0 0 1.0605538156603982 0.7407575942222664
148 1 Ni 0 0 0 1.086136166107518 0.8347472885019622
149 1 Ni 0 0 0 1.048623667390346 0.7619292669728239
150 1 Ni 0 0 0 1.0860192977502938 0.9634500845623193
151 1 Ni 0 0 0 1.010424465254965 0.731255155215754
152 1 Ni 0 0 0 1.0536431755908886 0.7952972649474491
153 1 Ni 0 0 0 1.0334633002942692 0.8998346292170127
154 1 Ni 0 0 0 1.0771950855116676 0.967140807334823
155 1 Ni 0 0 0 1.0204622426021919 0.7476042455927355
156 1 Ni 0 0 0 1.0346252463584134 0.7384636569757498
157 1 Ni 0 0 0 1.0418768546157584 0.8312628894559654
158 1 Ni 0 0 0 1.0806630756111884 0.9701001618630815
159 1 Ni 0 0 0 1.0121253196376985 0.7320374739264817
160 1 Ni 0 0 0 1.0454267245235223 0.7175538877041596
161 1 Ni 0 0 0 1.0574541794732404 0.7836412613727172
162 1 Ni 0 0 0 1.050429229502524 0.8066978082370507
163 1 Ni 0 0 0 1.0141134679537491 0.8264481797099377
164 1 Ni 0 0 0 1.0773716202175891 0.9911526612256585
165 1 Ni 0 0 0 1.0900240854631498 1.0396717127964004
166 1 Ni 0 0 0 1.0671153593310367 0.8444334334026496
167 1 Ni 0 0 0 1.0596897835837151 0.9251368262270447
168 1 Ni 0 0 0 1.0551286510466482 0.8774469953549724
169 1 Ni 0 0 0 1.0112661235300888 0.7167018604849885
170 1 Ni 0 0 0 1.0231665384623407 0.8577854724535136
171 1 Ni 0 0 0 1.0426068475379406 0.8714881544169145
172 1 Ni 0 0 0 1.0539324352078199 0.7414416258655749
173 1 Ni 0 0 0 1.0137907626118037 0.7359793224763145
174 1 Ni 0 0 0 1.1105221102460159 1.1072907230357232
175 1 Ni 0 0 0 1.079821084732384 0.7983363283182724
176 1 Ni 0 0 0 1.0584741888690803 0.8474108562812334
177 1 Ni 0 0 0 1.1349374426688688 1.1663462273815113
178 1 Ni 0 0 0 1.0616990730331701 0.7976185794209423
179 1 Ni 0 0 0 1.0669535500326932 0.8673634760009347
180 1 Ni 0 0 0 1.0525459328027975 0.8552684909702004
181 1 Ni 0 0 0 1.0560194604875464 0.9013114579632122
182 1 Ni 0 0 0 1.0639393859370205 0.8848324022624349
183 1 Ni 0 0 0 1.0536502119522586 0.777812333318151
184 1 Ni 0 0 0 1.1069951071602884 0.8873471701877289
185 1 Ni 0 0 0 1.055171041435948 0.7990790538171679
186 1 Ni 0 0 0 1.0745460463901368 0.840756197535301
187 1 Ni 0 0 0 1.086256389907474 1.1131333447478335
188 1 Ni 0 0 0 1.0498024581168057 0.8199132417868151
189 1 Ni 0 0 0 1.0508607414649176 0.9015581769253149
190 1 Ni 0 0 0 1.110836256234137 1.1252445040431702
191 1 Ni 0 0 0 1.0366416283525957 0.8384570641857734
192 1 Ni 0 0 0 1.0388525307786074 0.7758807155040041
193 1 Ni 0 0 0 1.0382105998306816 0.7676532614649961
194 1 Ni 0 0 0 1.075162107731801 0.8734150073539119
195 1 Ni 0 0 0 1.0421377345246583 0.9326165229852391
196 1 Ni 0 0 0 1.0420798351747778 0.956793654431545
197 1 Ni 0 0 0 1.0533310099010305 0.8960737548231074
198 1 Ni 0 0 0 1.045852139231575 0.8871334558759157
199 1 Ni 0 0 0 1.0689818674872078 0.9671216497609942
200 1 Ni 0 0 0 1.063260934632504 0.9184472942819842
201 2 Ag 0 0 0 -3.2699236596079095 -1.7915644905768184
202 2 Ag 0 0 0 -3.1364000116821193 -1.5734706920100094
203 2 Ag 0 0 0 -3.1416071475867056 -1.5376035718312688
204 2 Ag 0 0 0 -3.1621815846501113 -1.6144234411385419
205 2 Ag 0 0 0 -3.0507879718817223 -1.366279641192238
206 2 Ag 0 0 0 -3.0585561668982417 -1.3321683828578892
207 2 Ag 0 0 0 -3.25246702709178 -1.6764586341204344
208 2 Ag 0 0 0 -3.2138860067616957 -1.6594821635235757
209 2 Ag 0 0 0 -3.165327115056055 -1.6454635837266245
210 2 Ag 0 0 0 -3.0837726497797107 -1.4293077905990041
211 2 Ag 0 0 0 -3.3270648252844857 -1.911617284390664
212 2 Ag 0 0 0 -3.0643045926785244 -1.3528453804909564
213 2 Ag 0 0 0 -3.2309418535337904 -1.746220503509839
214 2 Ag 0 0 0 -3.2014380113437664 -1.656073585056829
215 2 Ag 0 0 0 -3.1970793361217633 -1.6364650382148251
216 2 Ag 0 0 0 -3.0025026311745484 -1.2536902871710154
217 2 Ag 0 0 0 -3.1796348545998154 -1.562066915127083
218 2 Ag 0 0 0 -3.2162282017651944 -1.5846711136010374
219 2 Ag 0 0 0 -3.1411254646162345 -1.5410466080479845
220 2 Ag 0 0 0 -3.0420198731025616 -1.300465786775304
221 2 Ag 0 0 0 -3.168617197814946 -1.5995972992921652
222 2 Ag 0 0 0 -3.222866543026745 -1.587799733525699
223 2 Ag 0 0 0 -3.081844017400833 -1.4453499332681967
224 2 Ag 0 0 0 -3.191323033586598 -1.614177163813822
225 2 Ag 0 0 0 -3.0707873800624492 -1.3901677650876516
226 2 Ag 0 0 0 -3.1349397089813507 -1.4816644686000138
227 2 Ag 0 0 0 -3.1217365820460197 -1.4844267242840303
228 2 Ag 0 0 0 -3.183203334593353 -1.5960799761025326
229 2 Ag 0 0 0 -3.047747336844813 -1.3020440321761568
230 2 Ag 0 0 0 -3.125651071122147 -1.4577721628274785
231 2 Ag 0 0 0 -3.1503635777506687 -1.4716383593571944
232 2 Ag 0 0 0 -3.1959064388332528 -1.6228093392906715
233 2 Ag 0 0 0 -3.0850332284423683 -1.4227329695829827
234 2 Ag 0 0 0 -3.217175279644462 -1.6606570464685482
235 2 Ag 0 0 0 -3.079605913153804 -1.3808122257877395
236 2 Ag 0 0 0 -3.196372203337437 -1.5824833271534142
237 2 Ag 0 0 0 -3.1661904965974084 -1.5574248485764066
238 2 Ag 0 0 0 -3.2588394691857596 -1.8059739647904476
239 2 Ag 0 0 0 -3.244285728079438 -1.74621572286289
240 2 Ag 0 0 0 -3.128203499137706 -1.5329430341798131
241 2 Ag 0 0 0 -3.163110435287831 -1.5050908582413678
242 2 Ag 0 0 0 -3.0544181085230053 -1.3347726746811437
243 2 Ag 0 0 0 -3.166631377174609 -1.5892410807596224
244 2 Ag 0 0 0 -3.1605505316450424 -1.5416732373544029
245 2 Ag 0 0 0 -3.096770268006733 -1.4132844941816374
246 2 Ag 0 0 0 -3.2122994443306596 -1.5948987551968483
247 2 Ag 0 0 0 -3.165804158526366 -1.5861171141075179
248 2 Ag 0 0 0 -3.226551223397687 -1.7278500898319427
249 2 Ag 0 0 0 -3.1426682245904973 -1.5486637485304537
250 2 Ag 0 0 0 -3.1862491027109967 -1.5999821754597694
251 2 Ag 0 0 0 -3.1790310592982105 -1.5974283106303802
252 2 Ag 0 0 0 -3.1619058131051756 -1.5639351856668486
253 2 Ag 0 0 0 -3.3048199203271666 -1.8545738127959992
254 2 Ag 0 0 0 -3.1557292748692216 -1.5522360635796697
255 2 Ag 0 0 0 -3.211398158807834 -1.6519888409330654
256 2 Ag 0 0 0 -3.199800361874735 -1.6480429451397904
257 2 Ag 0 0 0 -3.144588370060173 -1.5424670837589616
258 2 Ag 0 0 0 -3.2266519032218635 -1.7147729349823442
259 2 Ag 0 0 0 -3.239141131552232 -1.7658920074954323
260 2 Ag 0 0 0 -3.269227457919562 -1.7750463802074734
261 2 Ag 0 0 0 -3.0058879944133325 -1.2414993463679145
262 2 Ag 0 0 0 -3.3402240057094654 -1.8806023389800361
263 2 Ag 0 0 0 -3.281967971084796 -1.753295091005231
264 2 Ag 0 0 0 -3.155582607685846 -1.5992579510298328
265 2 Ag 0 0 0 -3.133131869570786 -1.5053820584870254
266 2 Ag 0 0 0 -3.1876682571878527 -1.5690399806106665
267 2 Ag 0 0 0 -3.1312916478295465 -1.4958533894687462
268 2 Ag 0 0 0 -3.114256709407926 -1.5579803040105786
269 2 Ag 0 0 0 -3.252585187453732 -1.7250041207818079
270 2 Ag 0 0 0 -3.004271039792482 -1.176368325560047
271 2 Ag 0 0 0 -3.091699988131877 -1.3821965980360864
272 2 Ag 0 0 0 -3.1087420085198447 -1.4354692155297046
273 2 Ag 0 0 0 -3.115605750643805 -1.388260677842273
274 2 Ag 0 0 0 -3.133437987478423 -1.5014994284651773
275 2 Ag 0 0 0 -3.1724349629982616 -1.5021716841099029
276 2 Ag 0 0 0 -3.2454892633560117 -1.7642202358091716
277 2 Ag 0 0 0 -3.0822455572114817 -1.3934231641341048
278 2 Ag 0 0 0 -3.228921369025576 -1.7380318166432434
279 2 Ag 0 0 0 -3.0708014524862386 -1.4035745303530474
280 2 Ag 0 0 0 -3.248072410692607 -1.722770718829316
281 2 Ag 0 0 0 -3.210850098605671 -1.633095369712464
282 2 Ag 0 0 0 -3.255897985575714 -1.7282275651922967
283 2 Ag 0 0 0 -3.247489353879215 -1.7964389392441817
284 2 Ag 0 0 0 -3.17951663683702 -1.5438299210139366
285 2 Ag 0 0 0 -3.1610326438133387 -1.59533440737319
286 2 Ag 0 0 0 -3.2876754261675427 -1.8006098039324625
287 2 Ag 0 0 0 -3.138685459666413 -1.4205511772567407
288 2 Ag 0 0 0 -3.1595906820852346 -1.5680697070083855
289 2 Ag 0 0 0 -3.198507081173175 -1.6065717446182308
290 2 Ag 0 0 0 -3.1996836648109546 -1.576292299953063
291 2 Ag 0 0 0 -3.2312306427938813 -1.780339931702829
292 2 Ag 0 0 0 -3.277085004221198 -1.835718155524571
293 2 Ag 0 0 0 -3.0956554488785635 -1.4199481236408946
294 2 Ag 0 0 0 -3.241769053572724 -1.6693318958190047
295 2 Ag 0 0 0 -3.0934909257255088 -1.5036140530992037
296 2 Ag 0 0 0 -3.1936061080474225 -1.7070114565878902
297 2 Ag 0 0 0 -3.3137587099187678 -1.8118891641417951
298 2 Ag 0 0 0 -3.2637307010662484 -1.7214448252229506
299 2 Ag 0 0 0 -3.187985999169134 -1.6589022569241596
300 2 Ag 0 0 0 -3.0477825216291965 -1.2880264876104468
301 2 Ag 0 0 0 -3.2217008283292534 -1.6527585797358824
302 2 Ag 0 0 0 -3.117265427310345 -1.4820669868662764
303 2 Ag 0 0 0 -3.1795306692075034 -1.5935067413299324
304 2 Ag 0 0 0 -3.1328944830763144 -1.5739940229713203
305 2 Ag 0 0 0 -3.176271473322521 -1.5146056058313404
306 2 Ag 0 0 0 -3.215218059698391 -1.6765959232144099
307 2 Ag 0 0 0 -3.3047010884351 -1.7839972452517208
308 2 Ag 0 0 0 -2.9957043542063677 -1.2436234879231898
309 2 Ag 0 0 0 -3.198479583676824 -1.6229233937912813
310 2 Ag 0 0 0 -3.011956514959963 -1.2753968629959846
ITEM: TIMESTEP
10
ITEM: NUMBER OF ATOMS
201
ITEM: BOX BOUNDS pp pp pp
0	17.5532
0	117.998
0	159.277
ITEM: ATOMS id type element xu yu zu Steinhardt[1] Steinhardt[2]
1 1 Ni 0 0 0 1.0552434546854559 0.8518484094162141
2 1 Ni 0 0 0 1.0791207416945485 1.0029875243618198
3 1 Ni 0 0 0 1.0034850854904889 0.8538683938328714
4 1 Ni 0 0 0 1.1002985341256943 1.0289107163263904
5 1 Ni 0 0 0 1.049084167159837 0.868028998704624
6 1 Ni 0 0 0 1.0889133762184584 0.907735926413724
7 1 Ni 0 0 0 1.0689482572853832 0.8510992980742909
8 1 Ni 0 0 0 1.0456677591740218 0.8560292562756068
9 1 Ni 0 0 0 1.0192408366710533 0.7847818054349356
10 1 Ni 0 0 0 1.0587450068997661 0.8409614880088931
11 1 Ni 0 0 0 1.0663560090135873 0.8743889437060302
12 1 Ni 0 0 0 1.0578803513521207 0.9743520023906804
13 1 Ni 0 0 0 1.0545119061180959 0.8602534466042554
14 1 Ni 0 0 0 1.0357403855380543 0.7002970992035964
15 1 Ni 0 0 0 1.0144078284840237 0.8240189528693599
16 1 Ni 0 0 0 1.0765384906662505 0.8711098031480937
17 1 Ni 0 0 0 1.043302447017052 0.7906697429120457
18 1 Ni 0 0 0 1.0205178730727158 0.8498240986068091
19 1 Ni 0 0 0 1.086519645910251 0.8939719422470508
20 1 Ni 0 0 0 1.04807632394969 0.7219107809753746
21 1 Ni 0 0 0 1.0527737362556273 0.7781967911529417
22 1 Ni 0 0 0 1.0073696075681835 0.8006770806514864
23 1 Ni 0 0 0 1.0766459104463226 0.920205723476669
24 1 Ni 0 0 0 1.0366264824400218 0.8940992422597706
25 1 Ni 0 0 0 1.0669442997391358 1.0065690582999332
26 1 Ni 0 0 0 1.0504280331556013 0.8233581471606648
27 1 Ni 0 0 0 1.0178213340066486 0.8605426482352717
28 1 Ni 0 0 0 1.0674486682035245 0.881318291001175
29 1 Ni 0 0 0 1.0816246800220124 0.9558241920821117
30 1 Ni 0 0 0 1.0802894510994925 0.9755416284846985
31 1 Ni 0 0 0 1.053778887878097 0.8784984673886522
32 1 Ni 0 0 0 1.1002421225726537 1.0611068318930816
33 1 Ni 0 0 0 1.0293851886527792 0.7510963598069175
34 1 Ni 0 0 0 1.069162706489357 0.9538827447584806
35 1 Ni 0 0 0 1.0260104231003928 0.7689139968199774
36 1 Ni 0 0 0 1.122969143654584 1.0838470407709653
37 1 Ni 0 0 0 1.056246008806976 0.7746397163962995
38 1 Ni 0 0 0 1.0710997396558577 0.9078359598309188
39 1 Ni 0 0 0 1.0440322306072891 0.7500381058681095
40 1 Ni 0 0 0 1.0846620094590926 0.9153980829064988
41 1 Ni 0 0 0 1.013708589701089 0.7429933385464637
42 1 Ni 0 0 0 1.0837780005922533 1.0194480195567086
43 1 Ni 0 0 0 1.0541218645098702 0.8333444600332364
44 1 Ni 0 0 0 1.0080245709232794 0.6971649316939413
45 1 Ni 0 0 0 1.0627979407203894 0.8939902244605741
46 1 Ni 0 0 0 1.0524579400797969 0.890400521745982
47 1 Ni 0 0 0 1.0247217543585454 0.8006628466408086
48 1 Ni 0 0 0 1.0549977724065556 0.9203457772348564
49 1 Ni 0 0 0 1.042954648514558 0.7843321074457911
50 1 Ni 0 0 0 1.060406582904224 1.0455846408247589
51 1 Ni 0 0 0 1.0522208186549185 0.8548523079860283
52 1 Ni 0 0 0 1.0585096473485687 0.9753898696895403
53 1 Ni 0 0 0 1.031149120341267 0.7543117439239333
54 1 Ni 0 0 0 1.0347472546450587 0.8267862519521118
55 1 Ni 0 0 0 1.0595094355598913 0.9906724596220317
56 1 Ni 0 0 0 1.0790462115537773 0.9139907859223484
57 1 Ni 0 0 0 1.0448345241680859 0.7139965640338275
58 2 Ag 0 0 0 -3.175222811241407 -1.6367496473820382
59 2 Ag 0 0 0 -3.2212128076466056 -1.7208734689381953
60 2 Ag 0 0 0 -3.2284101398611655 -1.7093398601754368
61 2 Ag 0 0 0 -3.1014964081363985 -1.4142420894318035
62 2 Ag 0 0 0 -3.171498016663178 -1.5416274092205746
63 2 Ag 0 0 0 -3.061554753048197 -1.401264388291131
64 2 Ag 0 0 0 -3.1195270951963114 -1.468741747946353
65 2 Ag 0 0 0 -3.2702701349367493 -1.768091643263445
66 2 Ag 0 0 0 -3.168660495146344 -1.5739671501543688
67 2 Ag 0 0 0 -3.2733518681942058 -1.7505054545032348
68 2 Ag 0 0 0 -3.1299955772132 -1.4786119696694755
69 2 Ag 0 0 0 -3.1749182135152596 -1.566297252032227
70 2 Ag 0 0 0 -3.2520848303898675 -1.6608771582245994
71 2 Ag 0 0 0 -3.2072764186194123 -1.6612738487737646
72 2 Ag 0 0 0 -3.2108644844266525 -1.569937775894948
73 2 Ag 0 0 0 -3.2353629967122495 -1.6726333962473459
74 2 Ag 0 0 0 -3.183212175436219 -1.606902736103854
75 2 Ag 0 0 0 -3.2218534693282304 -1.6406021020485277
76 2 Ag 0 0 0 -3.2684533442713763 -1.7782472816091786
77 2 Ag 0 0 0 -3.229569510694362 -1.6426082886515843
78 2 Ag 0 0 0 -3.085592340431608 -1.4127605006688417
79 2 Ag 0 0 0 -3.1225498737725697 -1.4221562913706025
80 2 Ag 0 0 0 -3.166883156996228 -1.546051199753864
81 2 Ag 0 0 0 -3.2671027042139906 -1.735643260115961
82 2 Ag 0 0 0 -3.0841116947490765 -1.4115965202874712
83 2 Ag 0 0 0 -3.215517118264542 -1.6532132425822545
84 2 Ag 0 0 0 -3.157922122133074 -1.524016917000645
85 2 Ag 0 0 0 -3.1047375909156765 -1.4850442625067362
86 2 Ag 0 0 0 -3.1212827201525624 -1.460086266079509
87 2 Ag 0 0 0 -3.090340345907908 -1.4360977455839703
88 2 Ag 0 0 0 -3.160133834336603 -1.5449133198518619
89 2 Ag 0 0 0 -2.9368247597274815 -1.0914029852335796
90 2 Ag 0 0 0 -3.1619024885806444 -1.6110732785621138
91 2 Ag 0 0 0 -3.1477310604984803 -1.4863166567823083
92 2 Ag 0 0 0 -3.0847925494219908 -1.4517746605605328
93 2 Ag 0 0 0 -3.229779180304619 -1.6323104831712232
94 2 Ag 0 0 0 -3.1303002824035118 -1.453245148795662
95 2 Ag 0 0 0 -3.133200909612016 -1.509496205741532
96 2 Ag 0 0 0 -3.134720809028914 -1.4943984672829635
97 2 Ag 0 0 0 -3.160586490657579 -1.6073852570259575
98 2 Ag 0 0 0 -3.052620660106223 -1.3379105985001074
99 2 Ag 0 0 0 -3.2263463697897183 -1.7372169397698065
100 2 Ag 0 0 0 -3.1291864262336495 -1.5586720391003803
101 2 Ag 0 0 0 -3.2309354749680343 -1.7208131108588214
102 2 Ag 0 0 0 -3.110214747735054 -1.4861631422652386
103 2 Ag 0 0 0 -3.1812677576188673 -1.6302273046277538
104 2 Ag 0 0 0 -3.1840466405626544 -1.6126510129821126
105 2 Ag 0 0 0 -3.2621162896491662 -1.7259491976256645
106 2 Ag 0 0 0 -3.1202306728253633 -1.5263913690893645
107 2 Ag 0 0 0 -3.244026061846897 -1.7301456575170857
108 2 Ag 0 0 0 -3.1526173912989 -1.5433355407901939
109 2 Ag 0 0 0 -3.2155687353816345 -1.689382394903058
110 2 Ag 0 0 0 -3.223884635464807 -1.7166261389254662
111 2 Ag 0 0 0 -3.204972447191159 -1.6487776266825431
112 2 Ag 0 0 0 -3.1958252357958976 -1.62794947108044
113 2 Ag 0 0 0 -3.2096987155325487 -1.6867844157883383
114 2 Ag 0 0 0 -3.0620462355406817 -1.3271870379037325
115 2 Ag 0 0 0 -3.1422502386120574 -1.491954237478345
116 2 Ag 0 0 0 -3.206628935950231 -1.648616994500796
117 2 Ag 0 0 0 -1.71855084239782 -4.0316739608576295
118 2 Ag 0 0 0 -1.814294711743733 -4.146201677446372
119 2 Ag 0 0 0 -1.7652946445939286 -4.036510437611701
120 2 Ag 0 0 0 -1.633183392074548 -3.910229902222876
121 2 Ag 0 0 0 -1.6504733339296493 -3.9624375883039953
122 2 Ag 0 0 0 -1.9644399230995429 -4.52883353209056
123 2 Ag 0 0 0 -1.7194954105773665 -3.9616335373343623
124 2 Ag 0 0 0 -1.762805114397175 -3.9446811050707296
125 2 Ag 0 0 0 -1.7141193588580297 -3.8485290501022495
126 2 Ag 0 0 0 -1.701127058601828 -3.976443622644291
127 2 Ag 0 0 0 -1.795005718028467 -4.26040932711487
128 2 Ag 0 0 0 -1.8127937269855525 -4.09801586471082
129 2 Ag 0 0 0 -1.821077321370013 -4.382475735593928
130 2 Ag 0 0 0 -1.8490002675097925 -4.270716415298744
131 2 Ag 0 0 0 -1.7075278324035683 -3.937946242480355
132 2 Ag 0 0 0 -1.807044614816566 -4.198128905736181
133 2 Ag 0 0 0 -1.8371394535350059 -4.11254725300282
134 2 Ag 0 0 0 -1.7868275880795106 -4.128496859725882
135 2 Ag 0 0 0 -1.7118700122301895 -4.151891979292528
136 2 Ag 0 0 0 -1.8429706144605245 -4.036176085464132
137 2 Ag 0 0 0 -1.7946654552434589 -4.209251942703386
138 2 Ag 0 0 0 -1.6479643194408142 -4.019756147604941
139 2 Ag 0 0 0 -1.741330639297462 -4.16898083157344
140 2 Ag 0 0 0 -1.6476841647948912 -3.9562509620868425
141 2 Ag 0 0 0 -1.8017087481731164 -4.148723306757245
142 2 Ag 0 0 0 -1.6812181058275266 -3.9951122162102943
143 2 Ag 0 0 0 -1.8322976412155538 -4.0143546459501245
144 2 Ag 0 0 0 -1.7571587087094447 -4.181187639532265
145 2 Ag 0 0 0 -1.8136359899964989 -4.211504928504522
146 2 Ag 0 0 0 -1.7474895573592768 -4.067984398851448
147 2 Ag 0 0 0 -1.8079807102482168 -3.9425425290795264
148 2 Ag 0 0 0 -1.717697129352879 -4.038467279259138
149 2 Ag 0 0 0 -1.8024981923066308 -4.10873946402332
150 2 Ag 0 0 0 -1.6865328910056832 -3.8389916592585482
151 2 Ag 0 0 0 -1.819257656023005 -4.17946208936004
152 2 Ag 0 0 0 -1.7595705926716974 -4.131481623377046
153 2 Ag 0 0 0 -1.819864082430378 -4.042717807904448
154 2 Ag 0 0 0 -1.7230956227301695 -3.9900573212603745
155 2 Ag 0 0 0 -1.9763676202683214 -4.208463473046757
156 2 Ag 0 0 0 -1.7160334559942165 -4.096476766431298
157 2 Ag 0 0 0 -1.7433913854108476 -4.095341710326821
158 2 Ag 0 0 0 -1.779760139089117 -3.8410311525508756
159 2 Ag 0 0 0 -1.750161783284058 -4.018158878878698
160 2 Ag 0 0 0 -1.740148372045098 -3.877884022027902
161 2 Ag 0 0 0 -1.6935516525779468 -3.9619055351905024
162 2 Ag 0 0 0 -1.740582674921776 -4.133366095141154
163 2 Ag 0 0 0 -1.8052986074752144 -4.067484431237392
164 2 Ag 0 0 0 -1.607128301088145 -3.826923508002447
165 2 Ag 0 0 0 -1.7746885298806336 -4.027726696597847
166 2 Ag 0 0 0 -1.7562885513362048 -4.00487054667572
167 2 Ag 0 0 0 -1.7323557242274508 -4.132608935117666
168 2 Ag 0 0 0 -1.8921836984148148 -4.313276017310919
169 2 Ag 0 0 0 -1.6677859405006201 -3.944913972906355
170 2 Ag 0 0 0 -1.8298553245826998 -4.091170848606734
171 2 Ag 0 0 0 -1.80179477394196 -4.291739313607436
172 2 Ag 0 0 0 -1.8159469331735238 -4.189294310895657
173 2 Ag 0 0 0 -1.8529483388117 -4.039318865482017
174 2 Ag 0 0 0 -1.830329671912552 -3.989495145409571
175 2 Ag 0 0 0 -1.8599499881720587 -4.308902822371252
176 2 Ag 0 0 0 -1.7576277451396956 -4.151681006398933
177 2 Ag 0 0 0 -1.9285260308800378 -4.215280194354063
178 2 Ag 0 0 0 -1.7198931437633187 -3.937167130302439
179 2 Ag 0 0 0 -1.8526175983687883 -4.222439387108448
180 2 Ag 0 0 0 -1.7879108979358718 -4.217049777754018
181 2 Ag 0 0 0 -1.7918016289554495 -4.077869414571237
182 2 Ag 0 0 0 -1.7045741641678986 -3.814786850158518
183 2 Ag 0 0 0 -1.7945107940427663 -4.198929506952904
184 2 Ag 0 0 0 -1.7980125474757847 -4.209550400170769
185 2 Ag 0 0 0 -1.7669078839098413 -4.298262053090496
186 2 Ag 0 0 0 -1.6210614662407878 -3.955058018049986
187 2 Ag 0 0 0 -1.9069938218519393 -3.9747192963095967
188 2 Ag 0 0 0 -1.600425720988679 -3.8365250275828995
189 2 Ag 0 0 0 -1.7524636445280466 -4.133756607896109
190 2 Ag 0 0 0 -1.7696215944752527 -4.036630806754643
191 2 Ag 0 0 0 -1.5917521190917245 -3.832614703746237
192 2 Ag 0 0 0 -1.6874020931232487 -4.014036746141724
193 2 Ag 0 0 0 -1.733132944235487 -4.17309001907866
194 2 Ag 0 0 0 -1.8164093220002333 -4.167916888661981
195 2 Ag 0 0 0 -1.7065601568627384 -3.9340880952688404
196 2 Ag 0 0 0 -1.8056883430288282 -4.1387536144828605
197 2 Ag 0 0 0 -1.7875042267170875 -4.240293321100238
198 2 Ag 0 0 0 -1.7548623043478218 -4.236687151014633
199 2 Ag 0 0 0 -1.661843680070081 -3.7604440371517525
200 2 Ag 0 0 0 -1.7468613675702094 -4.070007802337296
201 2 Ag 0 0 0 -1.7822448300697338 -4.079345865507125
